Starting at : Mon Jul 10 16:46:25 +08 2023
-----------------------------------------------------
Setting workspace and sourcing develspace
workspace set up
Running simulation for rmader using nlopt
-----------------------------------------------------
Iteration Number: 0
-----------------------------------------------------
Basis= MINVO
hulls_curves.size()= 0
==============Initializing a SolverNLopt Object===================
t_min= 0
t_max= 8.83883
=========================
initial_state= 
Pos, Vel, Accel, Jerk= -10  10   0 0 0 0 0 0 0 0 0 0
final_state= 
Pos, Vel, Accel, Jerk=  10 -10   0 0 0 0 0 0 0 0 0 0
Calling optimize
Optimizing now...
==============Generating A Star Guess===================
[NL] Running A* from-10  10   0 to  10 -10   0, allowing time = 45 ms
seed:4203137400
=====================Running Octopus Search===================
[A*] Running...
[A*] Max Runtime was reached
[A*] choosing closest path as solution
-------------Waypoint------------
 9.89
-9.89
    0
Count: 19
Time for planner algorithm (RMADER - octopusSolver_ -> run): 51.9ms
[0m[ INFO] [1688978786.160538678]: [NL] A* found a feasible solution![0m
[0m[ INFO] [1688978786.161732140]: [NL] Using the A* guess[0m
The infeasible constraints of the initial Guess
Infeasible Constraints Highlighted in Red
_______________________
Indexes constraints
Obstacles: 0-->4799
Velocity: 4800-->5141
Accel: 5142-->5255
Total number of Constraints: 5336
_______________________
_______________________
Indexes variables
q: 0-->53
n: 54-->1253
d: 1254-->1653
Total number of Variables: 1654
_______________________
[NL] Optimizing now, allowing time = 45ms
[0m[ INFO] [1688978786.208247439]: [NL] Feasible, code=Maxtime_reached[0m
[NL] Feasible Solution found 46 ms 
q[N_]=  9.89 -9.89     0
obj_guess= 46.27698(45.55948 + 0.7174965)
obj_obtained= 46.27698(45.55948 + 0.7174965)
N_effective= 22
t_min= 0
t_max= 8.838835
num control points=40.17652
Time for planner algorithm (RMADER - snlopt.optimize(...)): 105.556ms
Time_needed (line 241, test_nlopt):46ms
N_effective= 22
t_min= 0
t_max= 8.838835
num control points=40.17652
Iteration Number: 1
-----------------------------------------------------
Basis= MINVO
hulls_curves.size()= 0
==============Initializing a SolverNLopt Object===================
t_min= 0
t_max= 8.83883
=========================
initial_state= 
Pos, Vel, Accel, Jerk= -10  10   0 0 0 0 0 0 0 0 0 0
final_state= 
Pos, Vel, Accel, Jerk=  10 -10   0 0 0 0 0 0 0 0 0 0
Calling optimize
Optimizing now...
==============Generating A Star Guess===================
[NL] Running A* from-10  10   0 to  10 -10   0, allowing time = 45 ms
seed:4203137400
=====================Running Octopus Search===================
[A*] Running...
[A*] Max Runtime was reached
[A*] choosing closest path as solution
-------------Waypoint------------
 9.89
-9.89
    0
Count: 19
Time for planner algorithm (RMADER - octopusSolver_ -> run): 52.7ms
[0m[ INFO] [1688978787.177120376]: [NL] A* found a feasible solution![0m
[0m[ INFO] [1688978787.178333465]: [NL] Using the A* guess[0m
The infeasible constraints of the initial Guess
Infeasible Constraints Highlighted in Red
_______________________
Indexes constraints
Obstacles: 0-->4799
Velocity: 4800-->5141
Accel: 5142-->5255
Total number of Constraints: 5336
_______________________
_______________________
Indexes variables
q: 0-->53
n: 54-->1253
d: 1254-->1653
Total number of Variables: 1654
_______________________
[NL] Optimizing now, allowing time = 45ms
[0m[ INFO] [1688978787.224049397]: [NL] Feasible, code=Maxtime_reached[0m
[NL] Feasible Solution found 45 ms 
q[N_]=  9.89 -9.89     0
obj_guess= 46.27698(45.55948 + 0.7174965)
obj_obtained= 46.27698(45.55948 + 0.7174965)
N_effective= 22
t_min= 0
t_max= 8.838835
num control points=40.17652
Time for planner algorithm (RMADER - snlopt.optimize(...)): 106.1659ms
Time_needed (line 241, test_nlopt):45ms
N_effective= 22
t_min= 0
t_max= 8.838835
num control points=40.17652
... logging to /home/cminghan/.ros/log/085b948e-1a38-11ee-bc96-00155df263c5/roslaunch-P-D21000977-30497.log
Checking log directory for disk usage. This may take a while.
Press Ctrl-C to interrupt
Done checking log file disk usage. Usage is <1GB.
]2;/home/cminghan/gcopter_ws/src/GCOPTER/gcopter/launch/nlopt_refresh.launch
[1mstarted roslaunch server http://P-D21000977:39265/[0m

SUMMARY
========

PARAMETERS
 * /rosdistro: noetic
 * /rosversion: 1.16.0
 * /test_nlopt/basis: MINVO

NODES
  /
    test_nlopt (gcopter/test_nlopt)

[1mROS_MASTER_URI=http://localhost:11311[0m
]2;/home/cminghan/gcopter_ws/src/GCOPTER/gcopter/launch/nlopt_refresh.launch http://localhost:11311
[1mprocess[test_nlopt-1]: started with pid [30511][0m
[test_nlopt-1] killing on exit
shutting down processing monitor...
... shutting down processing monitor complete
[1mdone[0m
Iteration Number: 2
-----------------------------------------------------
Basis= MINVO
hulls_curves.size()= 0
==============Initializing a SolverNLopt Object===================
t_min= 0
t_max= 8.83883
=========================
initial_state= 
Pos, Vel, Accel, Jerk= -10  10   0 0 0 0 0 0 0 0 0 0
final_state= 
Pos, Vel, Accel, Jerk=  10 -10   0 0 0 0 0 0 0 0 0 0
Calling optimize
Optimizing now...
==============Generating A Star Guess===================
[NL] Running A* from-10  10   0 to  10 -10   0, allowing time = 45 ms
seed:4203137400
=====================Running Octopus Search===================
[A*] Running...
[A*] Max Runtime was reached
[A*] choosing closest path as solution
-------------Waypoint------------
 9.89
-9.89
    0
Count: 19
Time for planner algorithm (RMADER - octopusSolver_ -> run): 52.1ms
[0m[ INFO] [1688978788.678748317]: [NL] A* found a feasible solution![0m
[0m[ INFO] [1688978788.679723428]: [NL] Using the A* guess[0m
The infeasible constraints of the initial Guess
Infeasible Constraints Highlighted in Red
_______________________
Indexes constraints
Obstacles: 0-->4799
Velocity: 4800-->5141
Accel: 5142-->5255
Total number of Constraints: 5336
_______________________
_______________________
Indexes variables
q: 0-->53
n: 54-->1253
d: 1254-->1653
Total number of Variables: 1654
_______________________
[NL] Optimizing now, allowing time = 45ms
[0m[ INFO] [1688978788.725534136]: [NL] Feasible, code=Maxtime_reached[0m
[NL] Feasible Solution found 45 ms 
q[N_]=  9.89 -9.89     0
obj_guess= 46.27698(45.55948 + 0.7174965)
obj_obtained= 46.27698(45.55948 + 0.7174965)
N_effective= 22
t_min= 0
t_max= 8.838835
num control points=40.17652
Time for planner algorithm (RMADER - snlopt.optimize(...)): 104.9724ms
Time_needed (line 241, test_nlopt):45ms
N_effective= 22
t_min= 0
t_max= 8.838835
num control points=40.17652
... logging to /home/cminghan/.ros/log/085b948e-1a38-11ee-bc96-00155df263c5/roslaunch-P-D21000977-30529.log
Checking log directory for disk usage. This may take a while.
Press Ctrl-C to interrupt
Done checking log file disk usage. Usage is <1GB.
]2;/home/cminghan/gcopter_ws/src/GCOPTER/gcopter/launch/nlopt_refresh.launch
[1mstarted roslaunch server http://P-D21000977:44959/[0m

SUMMARY
========

PARAMETERS
 * /rosdistro: noetic
 * /rosversion: 1.16.0
 * /test_nlopt/basis: MINVO

NODES
  /
    test_nlopt (gcopter/test_nlopt)

[1mROS_MASTER_URI=http://localhost:11311[0m
]2;/home/cminghan/gcopter_ws/src/GCOPTER/gcopter/launch/nlopt_refresh.launch http://localhost:11311
[1mprocess[test_nlopt-1]: started with pid [30543][0m
[test_nlopt-1] killing on exit
shutting down processing monitor...
... shutting down processing monitor complete
[1mdone[0m
Iteration Number: 3
-----------------------------------------------------
Basis= MINVO
hulls_curves.size()= 0
==============Initializing a SolverNLopt Object===================
t_min= 0
t_max= 8.83883
=========================
initial_state= 
Pos, Vel, Accel, Jerk= -10  10   0 0 0 0 0 0 0 0 0 0
final_state= 
Pos, Vel, Accel, Jerk=  10 -10   0 0 0 0 0 0 0 0 0 0
Calling optimize
Optimizing now...
==============Generating A Star Guess===================
[NL] Running A* from-10  10   0 to  10 -10   0, allowing time = 45 ms
seed:4203137400
=====================Running Octopus Search===================
[A*] Running...
[A*] Max Runtime was reached
[A*] choosing closest path as solution
-------------Waypoint------------
  7.5
-6.71
    0
Count: 19
Time for planner algorithm (RMADER - octopusSolver_ -> run): 55.1ms
[0m[ INFO] [1688978790.261947239]: [NL] A* found a feasible solution![0m
[0m[ INFO] [1688978790.263419606]: [NL] Using the A* guess[0m
The infeasible constraints of the initial Guess
Infeasible Constraints Highlighted in Red
_______________________
Indexes constraints
Obstacles: 0-->4799
Velocity: 4800-->5141
Accel: 5142-->5255
Total number of Constraints: 5336
_______________________
_______________________
Indexes variables
q: 0-->53
n: 54-->1253
d: 1254-->1653
Total number of Variables: 1654
_______________________
[NL] Optimizing now, allowing time = 45ms
[0m[ INFO] [1688978790.310344541]: [NL] Feasible, code=Maxtime_reached[0m
[NL] Feasible Solution found 46 ms 
q[N_]=   7.5 -6.71     0
obj_guess= 522.8897(39.23034 + 483.6594)
obj_obtained= 522.8897(39.23034 + 483.6594)
N_effective= 22
t_min= 0
t_max= 8.838835
num control points=40.17652
Time for planner algorithm (RMADER - snlopt.optimize(...)): 110.1751ms
Time_needed (line 241, test_nlopt):46ms
N_effective= 22
t_min= 0
t_max= 8.838835
num control points=40.17652
... logging to /home/cminghan/.ros/log/085b948e-1a38-11ee-bc96-00155df263c5/roslaunch-P-D21000977-30560.log
Checking log directory for disk usage. This may take a while.
Press Ctrl-C to interrupt
Done checking log file disk usage. Usage is <1GB.
]2;/home/cminghan/gcopter_ws/src/GCOPTER/gcopter/launch/nlopt_refresh.launch
[1mstarted roslaunch server http://P-D21000977:38847/[0m

SUMMARY
========

PARAMETERS
 * /rosdistro: noetic
 * /rosversion: 1.16.0
 * /test_nlopt/basis: MINVO

NODES
  /
    test_nlopt (gcopter/test_nlopt)

[1mROS_MASTER_URI=http://localhost:11311[0m
]2;/home/cminghan/gcopter_ws/src/GCOPTER/gcopter/launch/nlopt_refresh.launch http://localhost:11311
[1mprocess[test_nlopt-1]: started with pid [30574][0m
[test_nlopt-1] killing on exit
shutting down processing monitor...
... shutting down processing monitor complete
[1mdone[0m
Iteration Number: 4
-----------------------------------------------------
Basis= MINVO
hulls_curves.size()= 0
==============Initializing a SolverNLopt Object===================
t_min= 0
t_max= 8.83883
=========================
initial_state= 
Pos, Vel, Accel, Jerk= -10  10   0 0 0 0 0 0 0 0 0 0
final_state= 
Pos, Vel, Accel, Jerk=  10 -10   0 0 0 0 0 0 0 0 0 0
Calling optimize
Optimizing now...
==============Generating A Star Guess===================
[NL] Running A* from-10  10   0 to  10 -10   0, allowing time = 45 ms
seed:4203137400
=====================Running Octopus Search===================
[A*] Running...
[A*] Max Runtime was reached
[A*] choosing closest path as solution
-------------Waypoint------------
 9.89
-9.89
    0
Count: 19
Time for planner algorithm (RMADER - octopusSolver_ -> run): 52.3ms
[0m[ INFO] [1688978791.652268545]: [NL] A* found a feasible solution![0m
[0m[ INFO] [1688978791.653218416]: [NL] Using the A* guess[0m
The infeasible constraints of the initial Guess
Infeasible Constraints Highlighted in Red
_______________________
Indexes constraints
Obstacles: 0-->4799
Velocity: 4800-->5141
Accel: 5142-->5255
Total number of Constraints: 5336
_______________________
_______________________
Indexes variables
q: 0-->53
n: 54-->1253
d: 1254-->1653
Total number of Variables: 1654
_______________________
[NL] Optimizing now, allowing time = 45ms
[0m[ INFO] [1688978791.699863324]: [NL] Feasible, code=Maxtime_reached[0m
[NL] Feasible Solution found 46 ms 
q[N_]=  9.89 -9.89     0
obj_guess= 46.27698(45.55948 + 0.7174965)
obj_obtained= 46.27698(45.55948 + 0.7174965)
N_effective= 22
t_min= 0
t_max= 8.838835
num control points=40.17652
Time for planner algorithm (RMADER - snlopt.optimize(...)): 106.8795ms
Time_needed (line 241, test_nlopt):46ms
N_effective= 22
t_min= 0
t_max= 8.838835
num control points=40.17652
... logging to /home/cminghan/.ros/log/085b948e-1a38-11ee-bc96-00155df263c5/roslaunch-P-D21000977-30591.log
Checking log directory for disk usage. This may take a while.
Press Ctrl-C to interrupt
Done checking log file disk usage. Usage is <1GB.
]2;/home/cminghan/gcopter_ws/src/GCOPTER/gcopter/launch/nlopt_refresh.launch
[1mstarted roslaunch server http://P-D21000977:46085/[0m

SUMMARY
========

PARAMETERS
 * /rosdistro: noetic
 * /rosversion: 1.16.0
 * /test_nlopt/basis: MINVO

NODES
  /
    test_nlopt (gcopter/test_nlopt)

[1mROS_MASTER_URI=http://localhost:11311[0m
]2;/home/cminghan/gcopter_ws/src/GCOPTER/gcopter/launch/nlopt_refresh.launch http://localhost:11311
[1mprocess[test_nlopt-1]: started with pid [30605][0m
[test_nlopt-1] killing on exit
shutting down processing monitor...
... shutting down processing monitor complete
[1mdone[0m
Iteration Number: 5
-----------------------------------------------------
Basis= MINVO
hulls_curves.size()= 0
==============Initializing a SolverNLopt Object===================
t_min= 0
t_max= 8.83883
=========================
initial_state= 
Pos, Vel, Accel, Jerk= -10  10   0 0 0 0 0 0 0 0 0 0
final_state= 
Pos, Vel, Accel, Jerk=  10 -10   0 0 0 0 0 0 0 0 0 0
Calling optimize
Optimizing now...
==============Generating A Star Guess===================
[NL] Running A* from-10  10   0 to  10 -10   0, allowing time = 45 ms
seed:4203137400
=====================Running Octopus Search===================
[A*] Running...
[A*] Max Runtime was reached
[A*] choosing closest path as solution
-------------Waypoint------------
 9.89
-9.89
    0
Count: 19
Time for planner algorithm (RMADER - octopusSolver_ -> run): 52.2ms
[0m[ INFO] [1688978793.151915861]: [NL] A* found a feasible solution![0m
[0m[ INFO] [1688978793.153136656]: [NL] Using the A* guess[0m
The infeasible constraints of the initial Guess
Infeasible Constraints Highlighted in Red
_______________________
Indexes constraints
Obstacles: 0-->4799
Velocity: 4800-->5141
Accel: 5142-->5255
Total number of Constraints: 5336
_______________________
_______________________
Indexes variables
q: 0-->53
n: 54-->1253
d: 1254-->1653
Total number of Variables: 1654
_______________________
[NL] Optimizing now, allowing time = 45ms
[0m[ INFO] [1688978793.199621013]: [NL] Feasible, code=Maxtime_reached[0m
[NL] Feasible Solution found 46 ms 
q[N_]=  9.89 -9.89     0
obj_guess= 46.27698(45.55948 + 0.7174965)
obj_obtained= 46.27698(45.55948 + 0.7174965)
N_effective= 22
t_min= 0
t_max= 8.838835
num control points=40.17652
Time for planner algorithm (RMADER - snlopt.optimize(...)): 105.8912ms
Time_needed (line 241, test_nlopt):46ms
N_effective= 22
t_min= 0
t_max= 8.838835
num control points=40.17652
... logging to /home/cminghan/.ros/log/085b948e-1a38-11ee-bc96-00155df263c5/roslaunch-P-D21000977-30622.log
Checking log directory for disk usage. This may take a while.
Press Ctrl-C to interrupt
Done checking log file disk usage. Usage is <1GB.
]2;/home/cminghan/gcopter_ws/src/GCOPTER/gcopter/launch/nlopt_refresh.launch
[1mstarted roslaunch server http://P-D21000977:37409/[0m

SUMMARY
========

PARAMETERS
 * /rosdistro: noetic
 * /rosversion: 1.16.0
 * /test_nlopt/basis: MINVO

NODES
  /
    test_nlopt (gcopter/test_nlopt)

[1mROS_MASTER_URI=http://localhost:11311[0m
]2;/home/cminghan/gcopter_ws/src/GCOPTER/gcopter/launch/nlopt_refresh.launch http://localhost:11311
[1mprocess[test_nlopt-1]: started with pid [30636][0m
[test_nlopt-1] killing on exit
shutting down processing monitor...
... shutting down processing monitor complete
[1mdone[0m
Iteration Number: 6
-----------------------------------------------------
Basis= MINVO
hulls_curves.size()= 0
==============Initializing a SolverNLopt Object===================
t_min= 0
t_max= 8.83883
=========================
initial_state= 
Pos, Vel, Accel, Jerk= -10  10   0 0 0 0 0 0 0 0 0 0
final_state= 
Pos, Vel, Accel, Jerk=  10 -10   0 0 0 0 0 0 0 0 0 0
Calling optimize
Optimizing now...
==============Generating A Star Guess===================
[NL] Running A* from-10  10   0 to  10 -10   0, allowing time = 45 ms
seed:4203137400
=====================Running Octopus Search===================
[A*] Running...
[A*] Max Runtime was reached
[A*] choosing closest path as solution
-------------Waypoint------------
 9.89
-9.89
    0
Count: 19
Time for planner algorithm (RMADER - octopusSolver_ -> run): 52.1ms
[0m[ INFO] [1688978794.661542718]: [NL] A* found a feasible solution![0m
[0m[ INFO] [1688978794.662707886]: [NL] Using the A* guess[0m
The infeasible constraints of the initial Guess
Infeasible Constraints Highlighted in Red
_______________________
Indexes constraints
Obstacles: 0-->4799
Velocity: 4800-->5141
Accel: 5142-->5255
Total number of Constraints: 5336
_______________________
_______________________
Indexes variables
q: 0-->53
n: 54-->1253
d: 1254-->1653
Total number of Variables: 1654
_______________________
[NL] Optimizing now, allowing time = 45ms
[0m[ INFO] [1688978794.710105766]: [NL] Feasible, code=Maxtime_reached[0m
[NL] Feasible Solution found 47 ms 
q[N_]=  9.89 -9.89     0
obj_guess= 46.27698(45.55948 + 0.7174965)
obj_obtained= 46.27698(45.55948 + 0.7174965)
N_effective= 22
t_min= 0
t_max= 8.838835
num control points=40.17652
Time for planner algorithm (RMADER - snlopt.optimize(...)): 106.6438ms
Time_needed (line 241, test_nlopt):47ms
N_effective= 22
t_min= 0
t_max= 8.838835
num control points=40.17652
... logging to /home/cminghan/.ros/log/085b948e-1a38-11ee-bc96-00155df263c5/roslaunch-P-D21000977-30653.log
Checking log directory for disk usage. This may take a while.
Press Ctrl-C to interrupt
Done checking log file disk usage. Usage is <1GB.
]2;/home/cminghan/gcopter_ws/src/GCOPTER/gcopter/launch/nlopt_refresh.launch
[1mstarted roslaunch server http://P-D21000977:41433/[0m

SUMMARY
========

PARAMETERS
 * /rosdistro: noetic
 * /rosversion: 1.16.0
 * /test_nlopt/basis: MINVO

NODES
  /
    test_nlopt (gcopter/test_nlopt)

[1mROS_MASTER_URI=http://localhost:11311[0m
]2;/home/cminghan/gcopter_ws/src/GCOPTER/gcopter/launch/nlopt_refresh.launch http://localhost:11311
[1mprocess[test_nlopt-1]: started with pid [30667][0m
[test_nlopt-1] killing on exit
shutting down processing monitor...
... shutting down processing monitor complete
[1mdone[0m
Iteration Number: 7
-----------------------------------------------------
Basis= MINVO
hulls_curves.size()= 0
==============Initializing a SolverNLopt Object===================
t_min= 0
t_max= 8.83883
=========================
initial_state= 
Pos, Vel, Accel, Jerk= -10  10   0 0 0 0 0 0 0 0 0 0
final_state= 
Pos, Vel, Accel, Jerk=  10 -10   0 0 0 0 0 0 0 0 0 0
Calling optimize
Optimizing now...
==============Generating A Star Guess===================
[NL] Running A* from-10  10   0 to  10 -10   0, allowing time = 45 ms
seed:4203137400
=====================Running Octopus Search===================
[A*] Running...
[A*] Max Runtime was reached
[A*] choosing closest path as solution
-------------Waypoint------------
 9.89
-9.89
    0
Count: 19
Time for planner algorithm (RMADER - octopusSolver_ -> run): 52.3ms
[0m[ INFO] [1688978796.231908158]: [NL] A* found a feasible solution![0m
[0m[ INFO] [1688978796.233325681]: [NL] Using the A* guess[0m
The infeasible constraints of the initial Guess
Infeasible Constraints Highlighted in Red
_______________________
Indexes constraints
Obstacles: 0-->4799
Velocity: 4800-->5141
Accel: 5142-->5255
Total number of Constraints: 5336
_______________________
_______________________
Indexes variables
q: 0-->53
n: 54-->1253
d: 1254-->1653
Total number of Variables: 1654
_______________________
[NL] Optimizing now, allowing time = 45ms
[0m[ INFO] [1688978796.280164798]: [NL] Feasible, code=Maxtime_reached[0m
[NL] Feasible Solution found 46 ms 
q[N_]=  9.89 -9.89     0
obj_guess= 46.27698(45.55948 + 0.7174965)
obj_obtained= 46.27698(45.55948 + 0.7174965)
N_effective= 22
t_min= 0
t_max= 8.838835
num control points=40.17652
Time for planner algorithm (RMADER - snlopt.optimize(...)): 107.8143ms
Time_needed (line 241, test_nlopt):46ms
N_effective= 22
t_min= 0
t_max= 8.838835
num control points=40.17652
... logging to /home/cminghan/.ros/log/085b948e-1a38-11ee-bc96-00155df263c5/roslaunch-P-D21000977-30684.log
Checking log directory for disk usage. This may take a while.
Press Ctrl-C to interrupt
Done checking log file disk usage. Usage is <1GB.
]2;/home/cminghan/gcopter_ws/src/GCOPTER/gcopter/launch/nlopt_refresh.launch
[1mstarted roslaunch server http://P-D21000977:33647/[0m

SUMMARY
========

PARAMETERS
 * /rosdistro: noetic
 * /rosversion: 1.16.0
 * /test_nlopt/basis: MINVO

NODES
  /
    test_nlopt (gcopter/test_nlopt)

[1mROS_MASTER_URI=http://localhost:11311[0m
]2;/home/cminghan/gcopter_ws/src/GCOPTER/gcopter/launch/nlopt_refresh.launch http://localhost:11311
[1mprocess[test_nlopt-1]: started with pid [30698][0m
[test_nlopt-1] killing on exit
shutting down processing monitor...
... shutting down processing monitor complete
[1mdone[0m
Iteration Number: 8
-----------------------------------------------------
Basis= MINVO
hulls_curves.size()= 0
==============Initializing a SolverNLopt Object===================
t_min= 0
t_max= 8.83883
=========================
initial_state= 
Pos, Vel, Accel, Jerk= -10  10   0 0 0 0 0 0 0 0 0 0
final_state= 
Pos, Vel, Accel, Jerk=  10 -10   0 0 0 0 0 0 0 0 0 0
Calling optimize
Optimizing now...
==============Generating A Star Guess===================
[NL] Running A* from-10  10   0 to  10 -10   0, allowing time = 45 ms
seed:4203137400
=====================Running Octopus Search===================
[A*] Running...
[A*] Max Runtime was reached
[A*] choosing closest path as solution
-------------Waypoint------------
 9.89
-9.89
    0
Count: 19
Time for planner algorithm (RMADER - octopusSolver_ -> run): 52.8ms
[0m[ INFO] [1688978797.665397370]: [NL] A* found a feasible solution![0m
[0m[ INFO] [1688978797.666849874]: [NL] Using the A* guess[0m
The infeasible constraints of the initial Guess
Infeasible Constraints Highlighted in Red
_______________________
Indexes constraints
Obstacles: 0-->4799
Velocity: 4800-->5141
Accel: 5142-->5255
Total number of Constraints: 5336
_______________________
_______________________
Indexes variables
q: 0-->53
n: 54-->1253
d: 1254-->1653
Total number of Variables: 1654
_______________________
[NL] Optimizing now, allowing time = 45ms
[0m[ INFO] [1688978797.715421293]: [NL] Feasible, code=Maxtime_reached[0m
[NL] Feasible Solution found 48 ms 
q[N_]=  9.89 -9.89     0
obj_guess= 46.27698(45.55948 + 0.7174965)
obj_obtained= 46.27698(45.55948 + 0.7174965)
N_effective= 22
t_min= 0
t_max= 8.838835
num control points=40.17652
Time for planner algorithm (RMADER - snlopt.optimize(...)): 110.0716ms
Time_needed (line 241, test_nlopt):48ms
N_effective= 22
t_min= 0
t_max= 8.838835
num control points=40.17652
... logging to /home/cminghan/.ros/log/085b948e-1a38-11ee-bc96-00155df263c5/roslaunch-P-D21000977-30715.log
Checking log directory for disk usage. This may take a while.
Press Ctrl-C to interrupt
Done checking log file disk usage. Usage is <1GB.
]2;/home/cminghan/gcopter_ws/src/GCOPTER/gcopter/launch/nlopt_refresh.launch
[1mstarted roslaunch server http://P-D21000977:39625/[0m

SUMMARY
========

PARAMETERS
 * /rosdistro: noetic
 * /rosversion: 1.16.0
 * /test_nlopt/basis: MINVO

NODES
  /
    test_nlopt (gcopter/test_nlopt)

[1mROS_MASTER_URI=http://localhost:11311[0m
]2;/home/cminghan/gcopter_ws/src/GCOPTER/gcopter/launch/nlopt_refresh.launch http://localhost:11311
[1mprocess[test_nlopt-1]: started with pid [30729][0m
[test_nlopt-1] killing on exit
shutting down processing monitor...
... shutting down processing monitor complete
[1mdone[0m
Iteration Number: 9
-----------------------------------------------------
Basis= MINVO
hulls_curves.size()= 0
==============Initializing a SolverNLopt Object===================
t_min= 0
t_max= 8.83883
=========================
initial_state= 
Pos, Vel, Accel, Jerk= -10  10   0 0 0 0 0 0 0 0 0 0
final_state= 
Pos, Vel, Accel, Jerk=  10 -10   0 0 0 0 0 0 0 0 0 0
Calling optimize
Optimizing now...
==============Generating A Star Guess===================
[NL] Running A* from-10  10   0 to  10 -10   0, allowing time = 45 ms
seed:4203137400
=====================Running Octopus Search===================
[A*] Running...
[A*] Max Runtime was reached
[A*] choosing closest path as solution
-------------Waypoint------------
 9.89
-9.89
    0
Count: 19
Time for planner algorithm (RMADER - octopusSolver_ -> run): 52.1ms
[0m[ INFO] [1688978799.075006353]: [NL] A* found a feasible solution![0m
[0m[ INFO] [1688978799.075973536]: [NL] Using the A* guess[0m
The infeasible constraints of the initial Guess
Infeasible Constraints Highlighted in Red
_______________________
Indexes constraints
Obstacles: 0-->4799
Velocity: 4800-->5141
Accel: 5142-->5255
Total number of Constraints: 5336
_______________________
_______________________
Indexes variables
q: 0-->53
n: 54-->1253
d: 1254-->1653
Total number of Variables: 1654
_______________________
[NL] Optimizing now, allowing time = 45ms
[0m[ INFO] [1688978799.125432726]: [NL] Feasible, code=Maxtime_reached[0m
[NL] Feasible Solution found 49 ms 
q[N_]=  9.89 -9.89     0
obj_guess= 46.27698(45.55948 + 0.7174965)
obj_obtained= 46.27698(45.55948 + 0.7174965)
N_effective= 22
t_min= 0
t_max= 8.838835
num control points=40.17652
Time for planner algorithm (RMADER - snlopt.optimize(...)): 112.3128ms
Time_needed (line 241, test_nlopt):49ms
N_effective= 22
t_min= 0
t_max= 8.838835
num control points=40.17652
... logging to /home/cminghan/.ros/log/085b948e-1a38-11ee-bc96-00155df263c5/roslaunch-P-D21000977-30746.log
Checking log directory for disk usage. This may take a while.
Press Ctrl-C to interrupt
Done checking log file disk usage. Usage is <1GB.
]2;/home/cminghan/gcopter_ws/src/GCOPTER/gcopter/launch/nlopt_refresh.launch
[1mstarted roslaunch server http://P-D21000977:46475/[0m

SUMMARY
========

PARAMETERS
 * /rosdistro: noetic
 * /rosversion: 1.16.0
 * /test_nlopt/basis: MINVO

NODES
  /
    test_nlopt (gcopter/test_nlopt)

[1mROS_MASTER_URI=http://localhost:11311[0m
]2;/home/cminghan/gcopter_ws/src/GCOPTER/gcopter/launch/nlopt_refresh.launch http://localhost:11311
[1mprocess[test_nlopt-1]: started with pid [30760][0m
[test_nlopt-1] killing on exit
shutting down processing monitor...
... shutting down processing monitor complete
[1mdone[0m
Iteration Number: 10
-----------------------------------------------------
Basis= MINVO
hulls_curves.size()= 0
==============Initializing a SolverNLopt Object===================
t_min= 0
t_max= 8.83883
=========================
initial_state= 
Pos, Vel, Accel, Jerk= -10  10   0 0 0 0 0 0 0 0 0 0
final_state= 
Pos, Vel, Accel, Jerk=  10 -10   0 0 0 0 0 0 0 0 0 0
Calling optimize
Optimizing now...
==============Generating A Star Guess===================
[NL] Running A* from-10  10   0 to  10 -10   0, allowing time = 45 ms
seed:4203137400
=====================Running Octopus Search===================
[A*] Running...
[A*] Max Runtime was reached
[A*] choosing closest path as solution
-------------Waypoint------------
 9.89
-9.89
    0
Count: 19
Time for planner algorithm (RMADER - octopusSolver_ -> run): 52.3ms
[0m[ INFO] [1688978800.577447004]: [NL] A* found a feasible solution![0m
[0m[ INFO] [1688978800.578593941]: [NL] Using the A* guess[0m
The infeasible constraints of the initial Guess
Infeasible Constraints Highlighted in Red
_______________________
Indexes constraints
Obstacles: 0-->4799
Velocity: 4800-->5141
Accel: 5142-->5255
Total number of Constraints: 5336
_______________________
_______________________
Indexes variables
q: 0-->53
n: 54-->1253
d: 1254-->1653
Total number of Variables: 1654
_______________________
[NL] Optimizing now, allowing time = 45ms
[0m[ INFO] [1688978800.627270990]: [NL] Feasible, code=Maxtime_reached[0m
[NL] Feasible Solution found 48 ms 
q[N_]=  9.89 -9.89     0
obj_guess= 46.27698(45.55948 + 0.7174965)
obj_obtained= 46.27698(45.55948 + 0.7174965)
N_effective= 22
t_min= 0
t_max= 8.838835
num control points=40.17652
Time for planner algorithm (RMADER - snlopt.optimize(...)): 108.0955ms
Time_needed (line 241, test_nlopt):48ms
N_effective= 22
t_min= 0
t_max= 8.838835
num control points=40.17652
... logging to /home/cminghan/.ros/log/085b948e-1a38-11ee-bc96-00155df263c5/roslaunch-P-D21000977-30777.log
Checking log directory for disk usage. This may take a while.
Press Ctrl-C to interrupt
Done checking log file disk usage. Usage is <1GB.
]2;/home/cminghan/gcopter_ws/src/GCOPTER/gcopter/launch/nlopt_refresh.launch
[1mstarted roslaunch server http://P-D21000977:36359/[0m

SUMMARY
========

PARAMETERS
 * /rosdistro: noetic
 * /rosversion: 1.16.0
 * /test_nlopt/basis: MINVO

NODES
  /
    test_nlopt (gcopter/test_nlopt)

[1mROS_MASTER_URI=http://localhost:11311[0m
]2;/home/cminghan/gcopter_ws/src/GCOPTER/gcopter/launch/nlopt_refresh.launch http://localhost:11311
[1mprocess[test_nlopt-1]: started with pid [30791][0m
[test_nlopt-1] killing on exit
shutting down processing monitor...
... shutting down processing monitor complete
[1mdone[0m
Iteration Number: 11
-----------------------------------------------------
Basis= MINVO
hulls_curves.size()= 0
==============Initializing a SolverNLopt Object===================
t_min= 0
t_max= 8.83883
=========================
initial_state= 
Pos, Vel, Accel, Jerk= -10  10   0 0 0 0 0 0 0 0 0 0
final_state= 
Pos, Vel, Accel, Jerk=  10 -10   0 0 0 0 0 0 0 0 0 0
Calling optimize
Optimizing now...
==============Generating A Star Guess===================
[NL] Running A* from-10  10   0 to  10 -10   0, allowing time = 45 ms
seed:4203137400
=====================Running Octopus Search===================
[A*] Running...
[A*] Max Runtime was reached
[A*] choosing closest path as solution
-------------Waypoint------------
 9.89
-9.89
    0
Count: 19
Time for planner algorithm (RMADER - octopusSolver_ -> run): 52.3ms
[0m[ INFO] [1688978802.087194179]: [NL] A* found a feasible solution![0m
[0m[ INFO] [1688978802.088250668]: [NL] Using the A* guess[0m
The infeasible constraints of the initial Guess
Infeasible Constraints Highlighted in Red
_______________________
Indexes constraints
Obstacles: 0-->4799
Velocity: 4800-->5141
Accel: 5142-->5255
Total number of Constraints: 5336
_______________________
_______________________
Indexes variables
q: 0-->53
n: 54-->1253
d: 1254-->1653
Total number of Variables: 1654
_______________________
[NL] Optimizing now, allowing time = 45ms
[0m[ INFO] [1688978802.135459966]: [NL] Feasible, code=Maxtime_reached[0m
[NL] Feasible Solution found 46 ms 
q[N_]=  9.89 -9.89     0
obj_guess= 46.27698(45.55948 + 0.7174965)
obj_obtained= 46.27698(45.55948 + 0.7174965)
N_effective= 22
t_min= 0
t_max= 8.838835
num control points=40.17652
Time for planner algorithm (RMADER - snlopt.optimize(...)): 106.879ms
Time_needed (line 241, test_nlopt):46ms
N_effective= 22
t_min= 0
t_max= 8.838835
num control points=40.17652
... logging to /home/cminghan/.ros/log/085b948e-1a38-11ee-bc96-00155df263c5/roslaunch-P-D21000977-30808.log
Checking log directory for disk usage. This may take a while.
Press Ctrl-C to interrupt
Done checking log file disk usage. Usage is <1GB.
]2;/home/cminghan/gcopter_ws/src/GCOPTER/gcopter/launch/nlopt_refresh.launch
[1mstarted roslaunch server http://P-D21000977:46771/[0m

SUMMARY
========

PARAMETERS
 * /rosdistro: noetic
 * /rosversion: 1.16.0
 * /test_nlopt/basis: MINVO

NODES
  /
    test_nlopt (gcopter/test_nlopt)

[1mROS_MASTER_URI=http://localhost:11311[0m
]2;/home/cminghan/gcopter_ws/src/GCOPTER/gcopter/launch/nlopt_refresh.launch http://localhost:11311
[1mprocess[test_nlopt-1]: started with pid [30822][0m
[test_nlopt-1] killing on exit
shutting down processing monitor...
... shutting down processing monitor complete
[1mdone[0m
Iteration Number: 12
-----------------------------------------------------
Basis= MINVO
hulls_curves.size()= 0
==============Initializing a SolverNLopt Object===================
t_min= 0
t_max= 8.83883
=========================
initial_state= 
Pos, Vel, Accel, Jerk= -10  10   0 0 0 0 0 0 0 0 0 0
final_state= 
Pos, Vel, Accel, Jerk=  10 -10   0 0 0 0 0 0 0 0 0 0
Calling optimize
Optimizing now...
==============Generating A Star Guess===================
[NL] Running A* from-10  10   0 to  10 -10   0, allowing time = 45 ms
seed:4203137400
=====================Running Octopus Search===================
[A*] Running...
[A*] Max Runtime was reached
[A*] choosing closest path as solution
-------------Waypoint------------
 9.89
-9.89
    0
Count: 19
Time for planner algorithm (RMADER - octopusSolver_ -> run): 52.2ms
[0m[ INFO] [1688978803.699110578]: [NL] A* found a feasible solution![0m
[0m[ INFO] [1688978803.700234583]: [NL] Using the A* guess[0m
The infeasible constraints of the initial Guess
Infeasible Constraints Highlighted in Red
_______________________
Indexes constraints
Obstacles: 0-->4799
Velocity: 4800-->5141
Accel: 5142-->5255
Total number of Constraints: 5336
_______________________
_______________________
Indexes variables
q: 0-->53
n: 54-->1253
d: 1254-->1653
Total number of Variables: 1654
_______________________
[NL] Optimizing now, allowing time = 45ms
[0m[ INFO] [1688978803.747566104]: [NL] Feasible, code=Maxtime_reached[0m
[NL] Feasible Solution found 47 ms 
q[N_]=  9.89 -9.89     0
obj_guess= 46.27698(45.55948 + 0.7174965)
obj_obtained= 46.27698(45.55948 + 0.7174965)
N_effective= 22
t_min= 0
t_max= 8.838835
num control points=40.17652
Time for planner algorithm (RMADER - snlopt.optimize(...)): 106.5756ms
Time_needed (line 241, test_nlopt):46ms
N_effective= 22
t_min= 0
t_max= 8.838835
num control points=40.17652
... logging to /home/cminghan/.ros/log/085b948e-1a38-11ee-bc96-00155df263c5/roslaunch-P-D21000977-30839.log
Checking log directory for disk usage. This may take a while.
Press Ctrl-C to interrupt
Done checking log file disk usage. Usage is <1GB.
]2;/home/cminghan/gcopter_ws/src/GCOPTER/gcopter/launch/nlopt_refresh.launch
[1mstarted roslaunch server http://P-D21000977:36249/[0m

SUMMARY
========

PARAMETERS
 * /rosdistro: noetic
 * /rosversion: 1.16.0
 * /test_nlopt/basis: MINVO

NODES
  /
    test_nlopt (gcopter/test_nlopt)

[1mROS_MASTER_URI=http://localhost:11311[0m
]2;/home/cminghan/gcopter_ws/src/GCOPTER/gcopter/launch/nlopt_refresh.launch http://localhost:11311
[1mprocess[test_nlopt-1]: started with pid [30853][0m
[test_nlopt-1] killing on exit
shutting down processing monitor...
... shutting down processing monitor complete
[1mdone[0m
Iteration Number: 13
-----------------------------------------------------
Basis= MINVO
hulls_curves.size()= 0
==============Initializing a SolverNLopt Object===================
t_min= 0
t_max= 8.83883
=========================
initial_state= 
Pos, Vel, Accel, Jerk= -10  10   0 0 0 0 0 0 0 0 0 0
final_state= 
Pos, Vel, Accel, Jerk=  10 -10   0 0 0 0 0 0 0 0 0 0
Calling optimize
Optimizing now...
==============Generating A Star Guess===================
[NL] Running A* from-10  10   0 to  10 -10   0, allowing time = 45 ms
seed:4203137400
=====================Running Octopus Search===================
[A*] Running...
[A*] Max Runtime was reached
[A*] choosing closest path as solution
-------------Waypoint------------
 9.89
-9.89
    0
Count: 19
Time for planner algorithm (RMADER - octopusSolver_ -> run): 51.8ms
[0m[ INFO] [1688978805.196186270]: [NL] A* found a feasible solution![0m
[0m[ INFO] [1688978805.197203768]: [NL] Using the A* guess[0m
The infeasible constraints of the initial Guess
Infeasible Constraints Highlighted in Red
_______________________
Indexes constraints
Obstacles: 0-->4799
Velocity: 4800-->5141
Accel: 5142-->5255
Total number of Constraints: 5336
_______________________
_______________________
Indexes variables
q: 0-->53
n: 54-->1253
d: 1254-->1653
Total number of Variables: 1654
_______________________
[NL] Optimizing now, allowing time = 45ms
[0m[ INFO] [1688978805.244132377]: [NL] Feasible, code=Maxtime_reached[0m
[NL] Feasible Solution found 46 ms 
q[N_]=  9.89 -9.89     0
obj_guess= 46.27698(45.55948 + 0.7174965)
obj_obtained= 46.27698(45.55948 + 0.7174965)
N_effective= 22
t_min= 0
t_max= 8.838835
num control points=40.17652
Time for planner algorithm (RMADER - snlopt.optimize(...)): 105.5613ms
Time_needed (line 241, test_nlopt):46ms
N_effective= 22
t_min= 0
t_max= 8.838835
num control points=40.17652
... logging to /home/cminghan/.ros/log/085b948e-1a38-11ee-bc96-00155df263c5/roslaunch-P-D21000977-30870.log
Checking log directory for disk usage. This may take a while.
Press Ctrl-C to interrupt
Done checking log file disk usage. Usage is <1GB.
]2;/home/cminghan/gcopter_ws/src/GCOPTER/gcopter/launch/nlopt_refresh.launch
[1mstarted roslaunch server http://P-D21000977:41543/[0m

SUMMARY
========

PARAMETERS
 * /rosdistro: noetic
 * /rosversion: 1.16.0
 * /test_nlopt/basis: MINVO

NODES
  /
    test_nlopt (gcopter/test_nlopt)

[1mROS_MASTER_URI=http://localhost:11311[0m
]2;/home/cminghan/gcopter_ws/src/GCOPTER/gcopter/launch/nlopt_refresh.launch http://localhost:11311
[1mprocess[test_nlopt-1]: started with pid [30884][0m
[test_nlopt-1] killing on exit
shutting down processing monitor...
... shutting down processing monitor complete
[1mdone[0m
Iteration Number: 14
-----------------------------------------------------
Basis= MINVO
hulls_curves.size()= 0
==============Initializing a SolverNLopt Object===================
t_min= 0
t_max= 8.83883
=========================
initial_state= 
Pos, Vel, Accel, Jerk= -10  10   0 0 0 0 0 0 0 0 0 0
final_state= 
Pos, Vel, Accel, Jerk=  10 -10   0 0 0 0 0 0 0 0 0 0
Calling optimize
Optimizing now...
==============Generating A Star Guess===================
[NL] Running A* from-10  10   0 to  10 -10   0, allowing time = 45 ms
seed:4203137400
=====================Running Octopus Search===================
[A*] Running...
[A*] Max Runtime was reached
[A*] choosing closest path as solution
-------------Waypoint------------
 9.89
-9.89
    0
Count: 19
Time for planner algorithm (RMADER - octopusSolver_ -> run): 52.5ms
[0m[ INFO] [1688978806.838930968]: [NL] A* found a feasible solution![0m
[0m[ INFO] [1688978806.839978663]: [NL] Using the A* guess[0m
The infeasible constraints of the initial Guess
Infeasible Constraints Highlighted in Red
_______________________
Indexes constraints
Obstacles: 0-->4799
Velocity: 4800-->5141
Accel: 5142-->5255
Total number of Constraints: 5336
_______________________
_______________________
Indexes variables
q: 0-->53
n: 54-->1253
d: 1254-->1653
Total number of Variables: 1654
_______________________
[NL] Optimizing now, allowing time = 45ms
[0m[ INFO] [1688978806.886295044]: [NL] Feasible, code=Maxtime_reached[0m
[NL] Feasible Solution found 46 ms 
q[N_]=  9.89 -9.89     0
obj_guess= 46.27698(45.55948 + 0.7174965)
obj_obtained= 46.27698(45.55948 + 0.7174965)
N_effective= 22
t_min= 0
t_max= 8.838835
num control points=40.17652
Time for planner algorithm (RMADER - snlopt.optimize(...)): 106.2949ms
Time_needed (line 241, test_nlopt):45ms
N_effective= 22
t_min= 0
t_max= 8.838835
num control points=40.17652
... logging to /home/cminghan/.ros/log/085b948e-1a38-11ee-bc96-00155df263c5/roslaunch-P-D21000977-30901.log
Checking log directory for disk usage. This may take a while.
Press Ctrl-C to interrupt
Done checking log file disk usage. Usage is <1GB.
]2;/home/cminghan/gcopter_ws/src/GCOPTER/gcopter/launch/nlopt_refresh.launch
[1mstarted roslaunch server http://P-D21000977:36925/[0m

SUMMARY
========

PARAMETERS
 * /rosdistro: noetic
 * /rosversion: 1.16.0
 * /test_nlopt/basis: MINVO

NODES
  /
    test_nlopt (gcopter/test_nlopt)

[1mROS_MASTER_URI=http://localhost:11311[0m
]2;/home/cminghan/gcopter_ws/src/GCOPTER/gcopter/launch/nlopt_refresh.launch http://localhost:11311
[1mprocess[test_nlopt-1]: started with pid [30915][0m
[test_nlopt-1] killing on exit
shutting down processing monitor...
... shutting down processing monitor complete
[1mdone[0m
Iteration Number: 15
-----------------------------------------------------
Basis= MINVO
hulls_curves.size()= 0
==============Initializing a SolverNLopt Object===================
t_min= 0
t_max= 8.83883
=========================
initial_state= 
Pos, Vel, Accel, Jerk= -10  10   0 0 0 0 0 0 0 0 0 0
final_state= 
Pos, Vel, Accel, Jerk=  10 -10   0 0 0 0 0 0 0 0 0 0
Calling optimize
Optimizing now...
==============Generating A Star Guess===================
[NL] Running A* from-10  10   0 to  10 -10   0, allowing time = 45 ms
seed:4203137400
=====================Running Octopus Search===================
[A*] Running...
[A*] Max Runtime was reached
[A*] choosing closest path as solution
-------------Waypoint------------
 9.89
-9.89
    0
Count: 19
Time for planner algorithm (RMADER - octopusSolver_ -> run): 52ms
[0m[ INFO] [1688978808.343590495]: [NL] A* found a feasible solution![0m
[0m[ INFO] [1688978808.344623146]: [NL] Using the A* guess[0m
The infeasible constraints of the initial Guess
Infeasible Constraints Highlighted in Red
_______________________
Indexes constraints
Obstacles: 0-->4799
Velocity: 4800-->5141
Accel: 5142-->5255
Total number of Constraints: 5336
_______________________
_______________________
Indexes variables
q: 0-->53
n: 54-->1253
d: 1254-->1653
Total number of Variables: 1654
_______________________
[NL] Optimizing now, allowing time = 45ms
[0m[ INFO] [1688978808.392318207]: [NL] Feasible, code=Maxtime_reached[0m
[NL] Feasible Solution found 47 ms 
q[N_]=  9.89 -9.89     0
obj_guess= 46.27698(45.55948 + 0.7174965)
obj_obtained= 46.27698(45.55948 + 0.7174965)
N_effective= 22
t_min= 0
t_max= 8.838835
num control points=40.17652
Time for planner algorithm (RMADER - snlopt.optimize(...)): 106.6921ms
Time_needed (line 241, test_nlopt):47ms
N_effective= 22
t_min= 0
t_max= 8.838835
num control points=40.17652
... logging to /home/cminghan/.ros/log/085b948e-1a38-11ee-bc96-00155df263c5/roslaunch-P-D21000977-30932.log
Checking log directory for disk usage. This may take a while.
Press Ctrl-C to interrupt
Done checking log file disk usage. Usage is <1GB.
]2;/home/cminghan/gcopter_ws/src/GCOPTER/gcopter/launch/nlopt_refresh.launch
[1mstarted roslaunch server http://P-D21000977:34567/[0m

SUMMARY
========

PARAMETERS
 * /rosdistro: noetic
 * /rosversion: 1.16.0
 * /test_nlopt/basis: MINVO

NODES
  /
    test_nlopt (gcopter/test_nlopt)

[1mROS_MASTER_URI=http://localhost:11311[0m
]2;/home/cminghan/gcopter_ws/src/GCOPTER/gcopter/launch/nlopt_refresh.launch http://localhost:11311
[1mprocess[test_nlopt-1]: started with pid [30946][0m
[test_nlopt-1] killing on exit
shutting down processing monitor...
... shutting down processing monitor complete
[1mdone[0m
Iteration Number: 16
-----------------------------------------------------
Basis= MINVO
hulls_curves.size()= 0
==============Initializing a SolverNLopt Object===================
t_min= 0
t_max= 8.83883
=========================
initial_state= 
Pos, Vel, Accel, Jerk= -10  10   0 0 0 0 0 0 0 0 0 0
final_state= 
Pos, Vel, Accel, Jerk=  10 -10   0 0 0 0 0 0 0 0 0 0
Calling optimize
Optimizing now...
==============Generating A Star Guess===================
[NL] Running A* from-10  10   0 to  10 -10   0, allowing time = 45 ms
seed:4203137400
=====================Running Octopus Search===================
[A*] Running...
[A*] Max Runtime was reached
[A*] choosing closest path as solution
-------------Waypoint------------
 9.89
-9.89
    0
Count: 19
Time for planner algorithm (RMADER - octopusSolver_ -> run): 52ms
[0m[ INFO] [1688978809.853566909]: [NL] A* found a feasible solution![0m
[0m[ INFO] [1688978809.854680659]: [NL] Using the A* guess[0m
The infeasible constraints of the initial Guess
Infeasible Constraints Highlighted in Red
_______________________
Indexes constraints
Obstacles: 0-->4799
Velocity: 4800-->5141
Accel: 5142-->5255
Total number of Constraints: 5336
_______________________
_______________________
Indexes variables
q: 0-->53
n: 54-->1253
d: 1254-->1653
Total number of Variables: 1654
_______________________
[NL] Optimizing now, allowing time = 45ms
[0m[ INFO] [1688978809.901985870]: [NL] Feasible, code=Maxtime_reached[0m
[NL] Feasible Solution found 46 ms 
q[N_]=  9.89 -9.89     0
obj_guess= 46.27698(45.55948 + 0.7174965)
obj_obtained= 46.27698(45.55948 + 0.7174965)
N_effective= 22
t_min= 0
t_max= 8.838835
num control points=40.17652
Time for planner algorithm (RMADER - snlopt.optimize(...)): 106.3692ms
Time_needed (line 241, test_nlopt):46ms
N_effective= 22
t_min= 0
t_max= 8.838835
num control points=40.17652
... logging to /home/cminghan/.ros/log/085b948e-1a38-11ee-bc96-00155df263c5/roslaunch-P-D21000977-30963.log
Checking log directory for disk usage. This may take a while.
Press Ctrl-C to interrupt
Done checking log file disk usage. Usage is <1GB.
]2;/home/cminghan/gcopter_ws/src/GCOPTER/gcopter/launch/nlopt_refresh.launch
[1mstarted roslaunch server http://P-D21000977:41433/[0m

SUMMARY
========

PARAMETERS
 * /rosdistro: noetic
 * /rosversion: 1.16.0
 * /test_nlopt/basis: MINVO

NODES
  /
    test_nlopt (gcopter/test_nlopt)

[1mROS_MASTER_URI=http://localhost:11311[0m
]2;/home/cminghan/gcopter_ws/src/GCOPTER/gcopter/launch/nlopt_refresh.launch http://localhost:11311
[1mprocess[test_nlopt-1]: started with pid [30977][0m
[test_nlopt-1] killing on exit
shutting down processing monitor...
... shutting down processing monitor complete
[1mdone[0m
Iteration Number: 17
-----------------------------------------------------
Basis= MINVO
hulls_curves.size()= 0
==============Initializing a SolverNLopt Object===================
t_min= 0
t_max= 8.83883
=========================
initial_state= 
Pos, Vel, Accel, Jerk= -10  10   0 0 0 0 0 0 0 0 0 0
final_state= 
Pos, Vel, Accel, Jerk=  10 -10   0 0 0 0 0 0 0 0 0 0
Calling optimize
Optimizing now...
==============Generating A Star Guess===================
[NL] Running A* from-10  10   0 to  10 -10   0, allowing time = 45 ms
seed:4203137400
=====================Running Octopus Search===================
[A*] Running...
[A*] Max Runtime was reached
[A*] choosing closest path as solution
-------------Waypoint------------
 9.89
-9.89
    0
Count: 19
Time for planner algorithm (RMADER - octopusSolver_ -> run): 51.9ms
[0m[ INFO] [1688978811.360211677]: [NL] A* found a feasible solution![0m
[0m[ INFO] [1688978811.361286958]: [NL] Using the A* guess[0m
The infeasible constraints of the initial Guess
Infeasible Constraints Highlighted in Red
_______________________
Indexes constraints
Obstacles: 0-->4799
Velocity: 4800-->5141
Accel: 5142-->5255
Total number of Constraints: 5336
_______________________
_______________________
Indexes variables
q: 0-->53
n: 54-->1253
d: 1254-->1653
Total number of Variables: 1654
_______________________
[NL] Optimizing now, allowing time = 45ms
[0m[ INFO] [1688978811.408684228]: [NL] Feasible, code=Maxtime_reached[0m
[NL] Feasible Solution found 47 ms 
q[N_]=  9.89 -9.89     0
obj_guess= 46.27698(45.55948 + 0.7174965)
obj_obtained= 46.27698(45.55948 + 0.7174965)
N_effective= 22
t_min= 0
t_max= 8.838835
num control points=40.17652
Time for planner algorithm (RMADER - snlopt.optimize(...)): 106.3033ms
Time_needed (line 241, test_nlopt):47ms
N_effective= 22
t_min= 0
t_max= 8.838835
num control points=40.17652
... logging to /home/cminghan/.ros/log/085b948e-1a38-11ee-bc96-00155df263c5/roslaunch-P-D21000977-30994.log
Checking log directory for disk usage. This may take a while.
Press Ctrl-C to interrupt
Done checking log file disk usage. Usage is <1GB.
]2;/home/cminghan/gcopter_ws/src/GCOPTER/gcopter/launch/nlopt_refresh.launch
[1mstarted roslaunch server http://P-D21000977:37321/[0m

SUMMARY
========

PARAMETERS
 * /rosdistro: noetic
 * /rosversion: 1.16.0
 * /test_nlopt/basis: MINVO

NODES
  /
    test_nlopt (gcopter/test_nlopt)

[1mROS_MASTER_URI=http://localhost:11311[0m
]2;/home/cminghan/gcopter_ws/src/GCOPTER/gcopter/launch/nlopt_refresh.launch http://localhost:11311
[1mprocess[test_nlopt-1]: started with pid [31008][0m
[test_nlopt-1] killing on exit
shutting down processing monitor...
... shutting down processing monitor complete
[1mdone[0m
Iteration Number: 18
-----------------------------------------------------
Basis= MINVO
hulls_curves.size()= 0
==============Initializing a SolverNLopt Object===================
t_min= 0
t_max= 8.83883
=========================
initial_state= 
Pos, Vel, Accel, Jerk= -10  10   0 0 0 0 0 0 0 0 0 0
final_state= 
Pos, Vel, Accel, Jerk=  10 -10   0 0 0 0 0 0 0 0 0 0
Calling optimize
Optimizing now...
==============Generating A Star Guess===================
[NL] Running A* from-10  10   0 to  10 -10   0, allowing time = 45 ms
seed:4203137400
=====================Running Octopus Search===================
[A*] Running...
[A*] Max Runtime was reached
[A*] choosing closest path as solution
-------------Waypoint------------
 9.89
-9.89
    0
Count: 19
Time for planner algorithm (RMADER - octopusSolver_ -> run): 52.2ms
[0m[ INFO] [1688978812.879097809]: [NL] A* found a feasible solution![0m
[0m[ INFO] [1688978812.880170652]: [NL] Using the A* guess[0m
The infeasible constraints of the initial Guess
Infeasible Constraints Highlighted in Red
_______________________
Indexes constraints
Obstacles: 0-->4799
Velocity: 4800-->5141
Accel: 5142-->5255
Total number of Constraints: 5336
_______________________
_______________________
Indexes variables
q: 0-->53
n: 54-->1253
d: 1254-->1653
Total number of Variables: 1654
_______________________
[NL] Optimizing now, allowing time = 45ms
[0m[ INFO] [1688978812.928871658]: [NL] Feasible, code=Maxtime_reached[0m
[NL] Feasible Solution found 48 ms 
q[N_]=  9.89 -9.89     0
obj_guess= 46.27698(45.55948 + 0.7174965)
obj_obtained= 46.27698(45.55948 + 0.7174965)
N_effective= 22
t_min= 0
t_max= 8.838835
num control points=40.17652
Time for planner algorithm (RMADER - snlopt.optimize(...)): 108.0714ms
Time_needed (line 241, test_nlopt):48ms
N_effective= 22
t_min= 0
t_max= 8.838835
num control points=40.17652
... logging to /home/cminghan/.ros/log/085b948e-1a38-11ee-bc96-00155df263c5/roslaunch-P-D21000977-31025.log
Checking log directory for disk usage. This may take a while.
Press Ctrl-C to interrupt
Done checking log file disk usage. Usage is <1GB.
]2;/home/cminghan/gcopter_ws/src/GCOPTER/gcopter/launch/nlopt_refresh.launch
[1mstarted roslaunch server http://P-D21000977:36399/[0m

SUMMARY
========

PARAMETERS
 * /rosdistro: noetic
 * /rosversion: 1.16.0
 * /test_nlopt/basis: MINVO

NODES
  /
    test_nlopt (gcopter/test_nlopt)

[1mROS_MASTER_URI=http://localhost:11311[0m
]2;/home/cminghan/gcopter_ws/src/GCOPTER/gcopter/launch/nlopt_refresh.launch http://localhost:11311
[1mprocess[test_nlopt-1]: started with pid [31039][0m
[test_nlopt-1] killing on exit
shutting down processing monitor...
... shutting down processing monitor complete
[1mdone[0m
Iteration Number: 19
-----------------------------------------------------
Basis= MINVO
hulls_curves.size()= 0
==============Initializing a SolverNLopt Object===================
t_min= 0
t_max= 8.83883
=========================
initial_state= 
Pos, Vel, Accel, Jerk= -10  10   0 0 0 0 0 0 0 0 0 0
final_state= 
Pos, Vel, Accel, Jerk=  10 -10   0 0 0 0 0 0 0 0 0 0
Calling optimize
Optimizing now...
==============Generating A Star Guess===================
[NL] Running A* from-10  10   0 to  10 -10   0, allowing time = 45 ms
seed:4203137400
=====================Running Octopus Search===================
[A*] Running...
[A*] Max Runtime was reached
[A*] choosing closest path as solution
-------------Waypoint------------
 9.89
-9.89
    0
Count: 19
Time for planner algorithm (RMADER - octopusSolver_ -> run): 52.1ms
[0m[ INFO] [1688978814.474358953]: [NL] A* found a feasible solution![0m
[0m[ INFO] [1688978814.475547812]: [NL] Using the A* guess[0m
The infeasible constraints of the initial Guess
Infeasible Constraints Highlighted in Red
_______________________
Indexes constraints
Obstacles: 0-->4799
Velocity: 4800-->5141
Accel: 5142-->5255
Total number of Constraints: 5336
_______________________
_______________________
Indexes variables
q: 0-->53
n: 54-->1253
d: 1254-->1653
Total number of Variables: 1654
_______________________
[NL] Optimizing now, allowing time = 45ms
[0m[ INFO] [1688978814.522660736]: [NL] Feasible, code=Maxtime_reached[0m
[NL] Feasible Solution found 46 ms 
q[N_]=  9.89 -9.89     0
obj_guess= 46.27698(45.55948 + 0.7174965)
obj_obtained= 46.27698(45.55948 + 0.7174965)
N_effective= 22
t_min= 0
t_max= 8.838835
num control points=40.17652
Time for planner algorithm (RMADER - snlopt.optimize(...)): 106.3453ms
Time_needed (line 241, test_nlopt):46ms
N_effective= 22
t_min= 0
t_max= 8.838835
num control points=40.17652
... logging to /home/cminghan/.ros/log/085b948e-1a38-11ee-bc96-00155df263c5/roslaunch-P-D21000977-31056.log
Checking log directory for disk usage. This may take a while.
Press Ctrl-C to interrupt
Done checking log file disk usage. Usage is <1GB.
]2;/home/cminghan/gcopter_ws/src/GCOPTER/gcopter/launch/nlopt_refresh.launch
[1mstarted roslaunch server http://P-D21000977:38235/[0m

SUMMARY
========

PARAMETERS
 * /rosdistro: noetic
 * /rosversion: 1.16.0
 * /test_nlopt/basis: MINVO

NODES
  /
    test_nlopt (gcopter/test_nlopt)

[1mROS_MASTER_URI=http://localhost:11311[0m
]2;/home/cminghan/gcopter_ws/src/GCOPTER/gcopter/launch/nlopt_refresh.launch http://localhost:11311
[1mprocess[test_nlopt-1]: started with pid [31073][0m
[test_nlopt-1] killing on exit
shutting down processing monitor...
... shutting down processing monitor complete
[1mdone[0m
Iteration Number: 20
-----------------------------------------------------
Basis= MINVO
hulls_curves.size()= 0
==============Initializing a SolverNLopt Object===================
t_min= 0
t_max= 8.83883
=========================
initial_state= 
Pos, Vel, Accel, Jerk= -10  10   0 0 0 0 0 0 0 0 0 0
final_state= 
Pos, Vel, Accel, Jerk=  10 -10   0 0 0 0 0 0 0 0 0 0
Calling optimize
Optimizing now...
==============Generating A Star Guess===================
[NL] Running A* from-10  10   0 to  10 -10   0, allowing time = 45 ms
seed:4203137400
=====================Running Octopus Search===================
[A*] Running...
[A*] Max Runtime was reached
[A*] choosing closest path as solution
-------------Waypoint------------
 9.89
-9.89
    0
Count: 19
Time for planner algorithm (RMADER - octopusSolver_ -> run): 52.2ms
[0m[ INFO] [1688978815.976003436]: [NL] A* found a feasible solution![0m
[0m[ INFO] [1688978815.977244196]: [NL] Using the A* guess[0m
The infeasible constraints of the initial Guess
Infeasible Constraints Highlighted in Red
_______________________
Indexes constraints
Obstacles: 0-->4799
Velocity: 4800-->5141
Accel: 5142-->5255
Total number of Constraints: 5336
_______________________
_______________________
Indexes variables
q: 0-->53
n: 54-->1253
d: 1254-->1653
Total number of Variables: 1654
_______________________
[NL] Optimizing now, allowing time = 45ms
[0m[ INFO] [1688978816.026565380]: [NL] Feasible, code=Maxtime_reached[0m
[NL] Feasible Solution found 49 ms 
q[N_]=  9.89 -9.89     0
obj_guess= 46.27698(45.55948 + 0.7174965)
obj_obtained= 46.27698(45.55948 + 0.7174965)
N_effective= 22
t_min= 0
t_max= 8.838835
num control points=40.17652
Time for planner algorithm (RMADER - snlopt.optimize(...)): 108.7407ms
Time_needed (line 241, test_nlopt):48ms
N_effective= 22
t_min= 0
t_max= 8.838835
num control points=40.17652
... logging to /home/cminghan/.ros/log/085b948e-1a38-11ee-bc96-00155df263c5/roslaunch-P-D21000977-31091.log
Checking log directory for disk usage. This may take a while.
Press Ctrl-C to interrupt
Done checking log file disk usage. Usage is <1GB.
]2;/home/cminghan/gcopter_ws/src/GCOPTER/gcopter/launch/nlopt_refresh.launch
[1mstarted roslaunch server http://P-D21000977:35755/[0m

SUMMARY
========

PARAMETERS
 * /rosdistro: noetic
 * /rosversion: 1.16.0
 * /test_nlopt/basis: MINVO

NODES
  /
    test_nlopt (gcopter/test_nlopt)

[1mROS_MASTER_URI=http://localhost:11311[0m
]2;/home/cminghan/gcopter_ws/src/GCOPTER/gcopter/launch/nlopt_refresh.launch http://localhost:11311
[1mprocess[test_nlopt-1]: started with pid [31105][0m
[test_nlopt-1] killing on exit
shutting down processing monitor...
... shutting down processing monitor complete
[1mdone[0m
Iteration Number: 21
-----------------------------------------------------
Basis= MINVO
hulls_curves.size()= 0
==============Initializing a SolverNLopt Object===================
t_min= 0
t_max= 8.83883
=========================
initial_state= 
Pos, Vel, Accel, Jerk= -10  10   0 0 0 0 0 0 0 0 0 0
final_state= 
Pos, Vel, Accel, Jerk=  10 -10   0 0 0 0 0 0 0 0 0 0
Calling optimize
Optimizing now...
==============Generating A Star Guess===================
[NL] Running A* from-10  10   0 to  10 -10   0, allowing time = 45 ms
seed:4203137400
=====================Running Octopus Search===================
[A*] Running...
[A*] Max Runtime was reached
[A*] choosing closest path as solution
-------------Waypoint------------
 9.89
-9.89
    0
Count: 19
Time for planner algorithm (RMADER - octopusSolver_ -> run): 52.4ms
[0m[ INFO] [1688978817.625121412]: [NL] A* found a feasible solution![0m
[0m[ INFO] [1688978817.626238592]: [NL] Using the A* guess[0m
The infeasible constraints of the initial Guess
Infeasible Constraints Highlighted in Red
_______________________
Indexes constraints
Obstacles: 0-->4799
Velocity: 4800-->5141
Accel: 5142-->5255
Total number of Constraints: 5336
_______________________
_______________________
Indexes variables
q: 0-->53
n: 54-->1253
d: 1254-->1653
Total number of Variables: 1654
_______________________
[NL] Optimizing now, allowing time = 45ms
[0m[ INFO] [1688978817.675880292]: [NL] Feasible, code=Maxtime_reached[0m
[NL] Feasible Solution found 49 ms 
q[N_]=  9.89 -9.89     0
obj_guess= 46.27698(45.55948 + 0.7174965)
obj_obtained= 46.27698(45.55948 + 0.7174965)
N_effective= 22
t_min= 0
t_max= 8.838835
num control points=40.17652
Time for planner algorithm (RMADER - snlopt.optimize(...)): 109.0305ms
Time_needed (line 241, test_nlopt):49ms
N_effective= 22
t_min= 0
t_max= 8.838835
num control points=40.17652
... logging to /home/cminghan/.ros/log/085b948e-1a38-11ee-bc96-00155df263c5/roslaunch-P-D21000977-31122.log
Checking log directory for disk usage. This may take a while.
Press Ctrl-C to interrupt
Done checking log file disk usage. Usage is <1GB.
]2;/home/cminghan/gcopter_ws/src/GCOPTER/gcopter/launch/nlopt_refresh.launch
[1mstarted roslaunch server http://P-D21000977:44531/[0m

SUMMARY
========

PARAMETERS
 * /rosdistro: noetic
 * /rosversion: 1.16.0
 * /test_nlopt/basis: MINVO

NODES
  /
    test_nlopt (gcopter/test_nlopt)

[1mROS_MASTER_URI=http://localhost:11311[0m
]2;/home/cminghan/gcopter_ws/src/GCOPTER/gcopter/launch/nlopt_refresh.launch http://localhost:11311
[1mprocess[test_nlopt-1]: started with pid [31136][0m
[test_nlopt-1] killing on exit
shutting down processing monitor...
... shutting down processing monitor complete
[1mdone[0m
Iteration Number: 22
-----------------------------------------------------
Basis= MINVO
hulls_curves.size()= 0
==============Initializing a SolverNLopt Object===================
t_min= 0
t_max= 8.83883
=========================
initial_state= 
Pos, Vel, Accel, Jerk= -10  10   0 0 0 0 0 0 0 0 0 0
final_state= 
Pos, Vel, Accel, Jerk=  10 -10   0 0 0 0 0 0 0 0 0 0
Calling optimize
Optimizing now...
==============Generating A Star Guess===================
[NL] Running A* from-10  10   0 to  10 -10   0, allowing time = 45 ms
seed:4203137400
=====================Running Octopus Search===================
[A*] Running...
[A*] Max Runtime was reached
[A*] choosing closest path as solution
-------------Waypoint------------
 9.89
-9.89
    0
Count: 19
Time for planner algorithm (RMADER - octopusSolver_ -> run): 52.2ms
[0m[ INFO] [1688978819.122135992]: [NL] A* found a feasible solution![0m
[0m[ INFO] [1688978819.123119661]: [NL] Using the A* guess[0m
The infeasible constraints of the initial Guess
Infeasible Constraints Highlighted in Red
_______________________
Indexes constraints
Obstacles: 0-->4799
Velocity: 4800-->5141
Accel: 5142-->5255
Total number of Constraints: 5336
_______________________
_______________________
Indexes variables
q: 0-->53
n: 54-->1253
d: 1254-->1653
Total number of Variables: 1654
_______________________
[NL] Optimizing now, allowing time = 45ms
[0m[ INFO] [1688978819.171396035]: [NL] Feasible, code=Maxtime_reached[0m
[NL] Feasible Solution found 48 ms 
q[N_]=  9.89 -9.89     0
obj_guess= 46.27698(45.55948 + 0.7174965)
obj_obtained= 46.27698(45.55948 + 0.7174965)
N_effective= 22
t_min= 0
t_max= 8.838835
num control points=40.17652
Time for planner algorithm (RMADER - snlopt.optimize(...)): 107.451ms
Time_needed (line 241, test_nlopt):47ms
N_effective= 22
t_min= 0
t_max= 8.838835
num control points=40.17652
... logging to /home/cminghan/.ros/log/085b948e-1a38-11ee-bc96-00155df263c5/roslaunch-P-D21000977-31153.log
Checking log directory for disk usage. This may take a while.
Press Ctrl-C to interrupt
Done checking log file disk usage. Usage is <1GB.
]2;/home/cminghan/gcopter_ws/src/GCOPTER/gcopter/launch/nlopt_refresh.launch
[1mstarted roslaunch server http://P-D21000977:45247/[0m

SUMMARY
========

PARAMETERS
 * /rosdistro: noetic
 * /rosversion: 1.16.0
 * /test_nlopt/basis: MINVO

NODES
  /
    test_nlopt (gcopter/test_nlopt)

[1mROS_MASTER_URI=http://localhost:11311[0m
]2;/home/cminghan/gcopter_ws/src/GCOPTER/gcopter/launch/nlopt_refresh.launch http://localhost:11311
[1mprocess[test_nlopt-1]: started with pid [31167][0m
[test_nlopt-1] killing on exit
shutting down processing monitor...
... shutting down processing monitor complete
[1mdone[0m
Iteration Number: 23
-----------------------------------------------------
Basis= MINVO
hulls_curves.size()= 0
==============Initializing a SolverNLopt Object===================
t_min= 0
t_max= 8.83883
=========================
initial_state= 
Pos, Vel, Accel, Jerk= -10  10   0 0 0 0 0 0 0 0 0 0
final_state= 
Pos, Vel, Accel, Jerk=  10 -10   0 0 0 0 0 0 0 0 0 0
Calling optimize
Optimizing now...
==============Generating A Star Guess===================
[NL] Running A* from-10  10   0 to  10 -10   0, allowing time = 45 ms
seed:4203137400
=====================Running Octopus Search===================
[A*] Running...
[A*] Max Runtime was reached
[A*] choosing closest path as solution
-------------Waypoint------------
 9.89
-9.89
    0
Count: 19
Time for planner algorithm (RMADER - octopusSolver_ -> run): 52.5ms
[0m[ INFO] [1688978820.627924607]: [NL] A* found a feasible solution![0m
[0m[ INFO] [1688978820.628955453]: [NL] Using the A* guess[0m
The infeasible constraints of the initial Guess
Infeasible Constraints Highlighted in Red
_______________________
Indexes constraints
Obstacles: 0-->4799
Velocity: 4800-->5141
Accel: 5142-->5255
Total number of Constraints: 5336
_______________________
_______________________
Indexes variables
q: 0-->53
n: 54-->1253
d: 1254-->1653
Total number of Variables: 1654
_______________________
[NL] Optimizing now, allowing time = 45ms
[0m[ INFO] [1688978820.676490797]: [NL] Feasible, code=Maxtime_reached[0m
[NL] Feasible Solution found 47 ms 
q[N_]=  9.89 -9.89     0
obj_guess= 46.27698(45.55948 + 0.7174965)
obj_obtained= 46.27698(45.55948 + 0.7174965)
N_effective= 22
t_min= 0
t_max= 8.838835
num control points=40.17652
Time for planner algorithm (RMADER - snlopt.optimize(...)): 107.8106ms
Time_needed (line 241, test_nlopt):47ms
N_effective= 22
t_min= 0
t_max= 8.838835
num control points=40.17652
... logging to /home/cminghan/.ros/log/085b948e-1a38-11ee-bc96-00155df263c5/roslaunch-P-D21000977-31184.log
Checking log directory for disk usage. This may take a while.
Press Ctrl-C to interrupt
Done checking log file disk usage. Usage is <1GB.
]2;/home/cminghan/gcopter_ws/src/GCOPTER/gcopter/launch/nlopt_refresh.launch
[1mstarted roslaunch server http://P-D21000977:34019/[0m

SUMMARY
========

PARAMETERS
 * /rosdistro: noetic
 * /rosversion: 1.16.0
 * /test_nlopt/basis: MINVO

NODES
  /
    test_nlopt (gcopter/test_nlopt)

[1mROS_MASTER_URI=http://localhost:11311[0m
]2;/home/cminghan/gcopter_ws/src/GCOPTER/gcopter/launch/nlopt_refresh.launch http://localhost:11311
[1mprocess[test_nlopt-1]: started with pid [31198][0m
[test_nlopt-1] killing on exit
shutting down processing monitor...
... shutting down processing monitor complete
[1mdone[0m
Iteration Number: 24
-----------------------------------------------------
Basis= MINVO
hulls_curves.size()= 0
==============Initializing a SolverNLopt Object===================
t_min= 0
t_max= 8.83883
=========================
initial_state= 
Pos, Vel, Accel, Jerk= -10  10   0 0 0 0 0 0 0 0 0 0
final_state= 
Pos, Vel, Accel, Jerk=  10 -10   0 0 0 0 0 0 0 0 0 0
Calling optimize
Optimizing now...
==============Generating A Star Guess===================
[NL] Running A* from-10  10   0 to  10 -10   0, allowing time = 45 ms
seed:4203137400
=====================Running Octopus Search===================
[A*] Running...
[A*] Max Runtime was reached
[A*] choosing closest path as solution
-------------Waypoint------------
 9.89
-9.89
    0
Count: 19
Time for planner algorithm (RMADER - octopusSolver_ -> run): 52.1ms
[0m[ INFO] [1688978822.139770497]: [NL] A* found a feasible solution![0m
[0m[ INFO] [1688978822.141126197]: [NL] Using the A* guess[0m
The infeasible constraints of the initial Guess
Infeasible Constraints Highlighted in Red
_______________________
Indexes constraints
Obstacles: 0-->4799
Velocity: 4800-->5141
Accel: 5142-->5255
Total number of Constraints: 5336
_______________________
_______________________
Indexes variables
q: 0-->53
n: 54-->1253
d: 1254-->1653
Total number of Variables: 1654
_______________________
[NL] Optimizing now, allowing time = 45ms
[0m[ INFO] [1688978822.187485129]: [NL] Feasible, code=Maxtime_reached[0m
[NL] Feasible Solution found 46 ms 
q[N_]=  9.89 -9.89     0
obj_guess= 46.27698(45.55948 + 0.7174965)
obj_obtained= 46.27698(45.55948 + 0.7174965)
N_effective= 22
t_min= 0
t_max= 8.838835
num control points=40.17652
Time for planner algorithm (RMADER - snlopt.optimize(...)): 106.0125ms
Time_needed (line 241, test_nlopt):45ms
N_effective= 22
t_min= 0
t_max= 8.838835
num control points=40.17652
... logging to /home/cminghan/.ros/log/085b948e-1a38-11ee-bc96-00155df263c5/roslaunch-P-D21000977-31215.log
Checking log directory for disk usage. This may take a while.
Press Ctrl-C to interrupt
Done checking log file disk usage. Usage is <1GB.
]2;/home/cminghan/gcopter_ws/src/GCOPTER/gcopter/launch/nlopt_refresh.launch
[1mstarted roslaunch server http://P-D21000977:42369/[0m

SUMMARY
========

PARAMETERS
 * /rosdistro: noetic
 * /rosversion: 1.16.0
 * /test_nlopt/basis: MINVO

NODES
  /
    test_nlopt (gcopter/test_nlopt)

[1mROS_MASTER_URI=http://localhost:11311[0m
]2;/home/cminghan/gcopter_ws/src/GCOPTER/gcopter/launch/nlopt_refresh.launch http://localhost:11311
[1mprocess[test_nlopt-1]: started with pid [31229][0m
[test_nlopt-1] killing on exit
shutting down processing monitor...
... shutting down processing monitor complete
[1mdone[0m
Iteration Number: 25
-----------------------------------------------------
Basis= MINVO
hulls_curves.size()= 0
==============Initializing a SolverNLopt Object===================
t_min= 0
t_max= 8.83883
=========================
initial_state= 
Pos, Vel, Accel, Jerk= -10  10   0 0 0 0 0 0 0 0 0 0
final_state= 
Pos, Vel, Accel, Jerk=  10 -10   0 0 0 0 0 0 0 0 0 0
Calling optimize
Optimizing now...
==============Generating A Star Guess===================
[NL] Running A* from-10  10   0 to  10 -10   0, allowing time = 45 ms
seed:4203137400
=====================Running Octopus Search===================
[A*] Running...
[A*] Max Runtime was reached
[A*] choosing closest path as solution
-------------Waypoint------------
 9.89
-9.89
    0
Count: 19
Time for planner algorithm (RMADER - octopusSolver_ -> run): 52.5ms
[0m[ INFO] [1688978823.647329169]: [NL] A* found a feasible solution![0m
[0m[ INFO] [1688978823.648353605]: [NL] Using the A* guess[0m
The infeasible constraints of the initial Guess
Infeasible Constraints Highlighted in Red
_______________________
Indexes constraints
Obstacles: 0-->4799
Velocity: 4800-->5141
Accel: 5142-->5255
Total number of Constraints: 5336
_______________________
_______________________
Indexes variables
q: 0-->53
n: 54-->1253
d: 1254-->1653
Total number of Variables: 1654
_______________________
[NL] Optimizing now, allowing time = 45ms
[0m[ INFO] [1688978823.694856699]: [NL] Feasible, code=Maxtime_reached[0m
[NL] Feasible Solution found 46 ms 
q[N_]=  9.89 -9.89     0
obj_guess= 46.27698(45.55948 + 0.7174965)
obj_obtained= 46.27698(45.55948 + 0.7174965)
N_effective= 22
t_min= 0
t_max= 8.838835
num control points=40.17652
Time for planner algorithm (RMADER - snlopt.optimize(...)): 108.7042ms
Time_needed (line 241, test_nlopt):46ms
N_effective= 22
t_min= 0
t_max= 8.838835
num control points=40.17652
... logging to /home/cminghan/.ros/log/085b948e-1a38-11ee-bc96-00155df263c5/roslaunch-P-D21000977-31246.log
Checking log directory for disk usage. This may take a while.
Press Ctrl-C to interrupt
Done checking log file disk usage. Usage is <1GB.
]2;/home/cminghan/gcopter_ws/src/GCOPTER/gcopter/launch/nlopt_refresh.launch
[1mstarted roslaunch server http://P-D21000977:40527/[0m

SUMMARY
========

PARAMETERS
 * /rosdistro: noetic
 * /rosversion: 1.16.0
 * /test_nlopt/basis: MINVO

NODES
  /
    test_nlopt (gcopter/test_nlopt)

[1mROS_MASTER_URI=http://localhost:11311[0m
]2;/home/cminghan/gcopter_ws/src/GCOPTER/gcopter/launch/nlopt_refresh.launch http://localhost:11311
[1mprocess[test_nlopt-1]: started with pid [31260][0m
[test_nlopt-1] killing on exit
shutting down processing monitor...
... shutting down processing monitor complete
[1mdone[0m
Iteration Number: 26
-----------------------------------------------------
Basis= MINVO
hulls_curves.size()= 0
==============Initializing a SolverNLopt Object===================
t_min= 0
t_max= 8.83883
=========================
initial_state= 
Pos, Vel, Accel, Jerk= -10  10   0 0 0 0 0 0 0 0 0 0
final_state= 
Pos, Vel, Accel, Jerk=  10 -10   0 0 0 0 0 0 0 0 0 0
Calling optimize
Optimizing now...
==============Generating A Star Guess===================
[NL] Running A* from-10  10   0 to  10 -10   0, allowing time = 45 ms
seed:4203137400
=====================Running Octopus Search===================
[A*] Running...
[A*] Max Runtime was reached
[A*] choosing closest path as solution
-------------Waypoint------------
 9.89
-9.89
    0
Count: 19
Time for planner algorithm (RMADER - octopusSolver_ -> run): 52ms
[0m[ INFO] [1688978825.159835268]: [NL] A* found a feasible solution![0m
[0m[ INFO] [1688978825.160932006]: [NL] Using the A* guess[0m
The infeasible constraints of the initial Guess
Infeasible Constraints Highlighted in Red
_______________________
Indexes constraints
Obstacles: 0-->4799
Velocity: 4800-->5141
Accel: 5142-->5255
Total number of Constraints: 5336
_______________________
_______________________
Indexes variables
q: 0-->53
n: 54-->1253
d: 1254-->1653
Total number of Variables: 1654
_______________________
[NL] Optimizing now, allowing time = 45ms
[0m[ INFO] [1688978825.208583980]: [NL] Feasible, code=Maxtime_reached[0m
[NL] Feasible Solution found 47 ms 
q[N_]=  9.89 -9.89     0
obj_guess= 46.27698(45.55948 + 0.7174965)
obj_obtained= 46.27698(45.55948 + 0.7174965)
N_effective= 22
t_min= 0
t_max= 8.838835
num control points=40.17652
Time for planner algorithm (RMADER - snlopt.optimize(...)): 106.6606ms
Time_needed (line 241, test_nlopt):47ms
N_effective= 22
t_min= 0
t_max= 8.838835
num control points=40.17652
... logging to /home/cminghan/.ros/log/085b948e-1a38-11ee-bc96-00155df263c5/roslaunch-P-D21000977-31277.log
Checking log directory for disk usage. This may take a while.
Press Ctrl-C to interrupt
Done checking log file disk usage. Usage is <1GB.
]2;/home/cminghan/gcopter_ws/src/GCOPTER/gcopter/launch/nlopt_refresh.launch
[1mstarted roslaunch server http://P-D21000977:38253/[0m

SUMMARY
========

PARAMETERS
 * /rosdistro: noetic
 * /rosversion: 1.16.0
 * /test_nlopt/basis: MINVO

NODES
  /
    test_nlopt (gcopter/test_nlopt)

[1mROS_MASTER_URI=http://localhost:11311[0m
]2;/home/cminghan/gcopter_ws/src/GCOPTER/gcopter/launch/nlopt_refresh.launch http://localhost:11311
[1mprocess[test_nlopt-1]: started with pid [31291][0m
[test_nlopt-1] killing on exit
shutting down processing monitor...
... shutting down processing monitor complete
[1mdone[0m
Iteration Number: 27
-----------------------------------------------------
Basis= MINVO
hulls_curves.size()= 0
==============Initializing a SolverNLopt Object===================
t_min= 0
t_max= 8.83883
=========================
initial_state= 
Pos, Vel, Accel, Jerk= -10  10   0 0 0 0 0 0 0 0 0 0
final_state= 
Pos, Vel, Accel, Jerk=  10 -10   0 0 0 0 0 0 0 0 0 0
Calling optimize
Optimizing now...
==============Generating A Star Guess===================
[NL] Running A* from-10  10   0 to  10 -10   0, allowing time = 45 ms
seed:4203137400
=====================Running Octopus Search===================
[A*] Running...
[A*] Max Runtime was reached
[A*] choosing closest path as solution
-------------Waypoint------------
 9.89
-9.89
    0
Count: 19
Time for planner algorithm (RMADER - octopusSolver_ -> run): 52.1ms
[0m[ INFO] [1688978826.676860066]: [NL] A* found a feasible solution![0m
[0m[ INFO] [1688978826.677898822]: [NL] Using the A* guess[0m
The infeasible constraints of the initial Guess
Infeasible Constraints Highlighted in Red
_______________________
Indexes constraints
Obstacles: 0-->4799
Velocity: 4800-->5141
Accel: 5142-->5255
Total number of Constraints: 5336
_______________________
_______________________
Indexes variables
q: 0-->53
n: 54-->1253
d: 1254-->1653
Total number of Variables: 1654
_______________________
[NL] Optimizing now, allowing time = 45ms
[0m[ INFO] [1688978826.727031736]: [NL] Feasible, code=Maxtime_reached[0m
[NL] Feasible Solution found 48 ms 
q[N_]=  9.89 -9.89     0
obj_guess= 46.27698(45.55948 + 0.7174965)
obj_obtained= 46.27698(45.55948 + 0.7174965)
N_effective= 22
t_min= 0
t_max= 8.838835
num control points=40.17652
Time for planner algorithm (RMADER - snlopt.optimize(...)): 108.3116ms
Time_needed (line 241, test_nlopt):48ms
N_effective= 22
t_min= 0
t_max= 8.838835
num control points=40.17652
... logging to /home/cminghan/.ros/log/085b948e-1a38-11ee-bc96-00155df263c5/roslaunch-P-D21000977-31308.log
Checking log directory for disk usage. This may take a while.
Press Ctrl-C to interrupt
Done checking log file disk usage. Usage is <1GB.
]2;/home/cminghan/gcopter_ws/src/GCOPTER/gcopter/launch/nlopt_refresh.launch
[1mstarted roslaunch server http://P-D21000977:46875/[0m

SUMMARY
========

PARAMETERS
 * /rosdistro: noetic
 * /rosversion: 1.16.0
 * /test_nlopt/basis: MINVO

NODES
  /
    test_nlopt (gcopter/test_nlopt)

[1mROS_MASTER_URI=http://localhost:11311[0m
]2;/home/cminghan/gcopter_ws/src/GCOPTER/gcopter/launch/nlopt_refresh.launch http://localhost:11311
[1mprocess[test_nlopt-1]: started with pid [31322][0m
[test_nlopt-1] killing on exit
shutting down processing monitor...
... shutting down processing monitor complete
[1mdone[0m
Iteration Number: 28
-----------------------------------------------------
Basis= MINVO
hulls_curves.size()= 0
==============Initializing a SolverNLopt Object===================
t_min= 0
t_max= 8.83883
=========================
initial_state= 
Pos, Vel, Accel, Jerk= -10  10   0 0 0 0 0 0 0 0 0 0
final_state= 
Pos, Vel, Accel, Jerk=  10 -10   0 0 0 0 0 0 0 0 0 0
Calling optimize
Optimizing now...
==============Generating A Star Guess===================
[NL] Running A* from-10  10   0 to  10 -10   0, allowing time = 45 ms
seed:4203137400
=====================Running Octopus Search===================
[A*] Running...
[A*] Max Runtime was reached
[A*] choosing closest path as solution
-------------Waypoint------------
 9.89
-9.89
    0
Count: 19
Time for planner algorithm (RMADER - octopusSolver_ -> run): 52.1ms
[0m[ INFO] [1688978828.181680070]: [NL] A* found a feasible solution![0m
[0m[ INFO] [1688978828.183024799]: [NL] Using the A* guess[0m
The infeasible constraints of the initial Guess
Infeasible Constraints Highlighted in Red
_______________________
Indexes constraints
Obstacles: 0-->4799
Velocity: 4800-->5141
Accel: 5142-->5255
Total number of Constraints: 5336
_______________________
_______________________
Indexes variables
q: 0-->53
n: 54-->1253
d: 1254-->1653
Total number of Variables: 1654
_______________________
[NL] Optimizing now, allowing time = 45ms
[0m[ INFO] [1688978828.229497191]: [NL] Feasible, code=Maxtime_reached[0m
[NL] Feasible Solution found 46 ms 
q[N_]=  9.89 -9.89     0
obj_guess= 46.27698(45.55948 + 0.7174965)
obj_obtained= 46.27698(45.55948 + 0.7174965)
N_effective= 22
t_min= 0
t_max= 8.838835
num control points=40.17652
Time for planner algorithm (RMADER - snlopt.optimize(...)): 105.8108ms
Time_needed (line 241, test_nlopt):46ms
N_effective= 22
t_min= 0
t_max= 8.838835
num control points=40.17652
... logging to /home/cminghan/.ros/log/085b948e-1a38-11ee-bc96-00155df263c5/roslaunch-P-D21000977-31339.log
Checking log directory for disk usage. This may take a while.
Press Ctrl-C to interrupt
Done checking log file disk usage. Usage is <1GB.
]2;/home/cminghan/gcopter_ws/src/GCOPTER/gcopter/launch/nlopt_refresh.launch
[1mstarted roslaunch server http://P-D21000977:33631/[0m

SUMMARY
========

PARAMETERS
 * /rosdistro: noetic
 * /rosversion: 1.16.0
 * /test_nlopt/basis: MINVO

NODES
  /
    test_nlopt (gcopter/test_nlopt)

[1mROS_MASTER_URI=http://localhost:11311[0m
]2;/home/cminghan/gcopter_ws/src/GCOPTER/gcopter/launch/nlopt_refresh.launch http://localhost:11311
[1mprocess[test_nlopt-1]: started with pid [31353][0m
[test_nlopt-1] killing on exit
shutting down processing monitor...
... shutting down processing monitor complete
[1mdone[0m
Iteration Number: 29
-----------------------------------------------------
Basis= MINVO
hulls_curves.size()= 0
==============Initializing a SolverNLopt Object===================
t_min= 0
t_max= 8.83883
=========================
initial_state= 
Pos, Vel, Accel, Jerk= -10  10   0 0 0 0 0 0 0 0 0 0
final_state= 
Pos, Vel, Accel, Jerk=  10 -10   0 0 0 0 0 0 0 0 0 0
Calling optimize
Optimizing now...
==============Generating A Star Guess===================
[NL] Running A* from-10  10   0 to  10 -10   0, allowing time = 45 ms
seed:4203137400
=====================Running Octopus Search===================
[A*] Running...
[A*] Max Runtime was reached
[A*] choosing closest path as solution
-------------Waypoint------------
 9.89
-9.89
    0
Count: 19
Time for planner algorithm (RMADER - octopusSolver_ -> run): 53ms
[0m[ INFO] [1688978829.689449985]: [NL] A* found a feasible solution![0m
[0m[ INFO] [1688978829.690576715]: [NL] Using the A* guess[0m
The infeasible constraints of the initial Guess
Infeasible Constraints Highlighted in Red
_______________________
Indexes constraints
Obstacles: 0-->4799
Velocity: 4800-->5141
Accel: 5142-->5255
Total number of Constraints: 5336
_______________________
_______________________
Indexes variables
q: 0-->53
n: 54-->1253
d: 1254-->1653
Total number of Variables: 1654
_______________________
[NL] Optimizing now, allowing time = 45ms
[0m[ INFO] [1688978829.740339215]: [NL] Feasible, code=Maxtime_reached[0m
[NL] Feasible Solution found 49 ms 
q[N_]=  9.89 -9.89     0
[...]
[0m[ INFO] [1688978853.908699456]: [NL] Using the A* guess[0m
The infeasible constraints of the initial Guess
Infeasible Constraints Highlighted in Red
_______________________
Indexes constraints
Obstacles: 0-->4799
Velocity: 4800-->5141
Accel: 5142-->5255
Total number of Constraints: 5336
_______________________
_______________________
Indexes variables
q: 0-->53
n: 54-->1253
d: 1254-->1653
Total number of Variables: 1654
_______________________
[NL] Optimizing now, allowing time = 45ms
[0m[ INFO] [1688978853.989670827]: [NL] Feasible, code=Maxtime_reached[0m
[NL] Feasible Solution found 80 ms 
q[N_]=  9.89 -9.89     0
obj_guess= 46.27698(45.55948 + 0.7174965)
obj_obtained= 46.27698(45.55948 + 0.7174965)
N_effective= 22
t_min= 0
t_max= 8.838835
num control points=40.17652
Time for planner algorithm (RMADER - snlopt.optimize(...)): 141.4317ms
Time_needed (line 241, test_nlopt):80ms
N_effective= 22
t_min= 0
t_max= 8.838835
num control points=40.17652
... logging to /home/cminghan/.ros/log/085b948e-1a38-11ee-bc96-00155df263c5/roslaunch-P-D21000977-31873.log
Checking log directory for disk usage. This may take a while.
Press Ctrl-C to interrupt
Done checking log file disk usage. Usage is <1GB.
]2;/home/cminghan/gcopter_ws/src/GCOPTER/gcopter/launch/nlopt_refresh.launch
[1mstarted roslaunch server http://P-D21000977:42463/[0m

SUMMARY
========

PARAMETERS
 * /rosdistro: noetic
 * /rosversion: 1.16.0
 * /test_nlopt/basis: MINVO

NODES
  /
    test_nlopt (gcopter/test_nlopt)

[1mROS_MASTER_URI=http://localhost:11311[0m
]2;/home/cminghan/gcopter_ws/src/GCOPTER/gcopter/launch/nlopt_refresh.launch http://localhost:11311
[1mprocess[test_nlopt-1]: started with pid [31887][0m
[test_nlopt-1] killing on exit
shutting down processing monitor...
... shutting down processing monitor complete
[1mdone[0m
Iteration Number: 46
-----------------------------------------------------
Basis= MINVO
hulls_curves.size()= 0
==============Initializing a SolverNLopt Object===================
t_min= 0
t_max= 8.83883
=========================
initial_state= 
Pos, Vel, Accel, Jerk= -10  10   0 0 0 0 0 0 0 0 0 0
final_state= 
Pos, Vel, Accel, Jerk=  10 -10   0 0 0 0 0 0 0 0 0 0
Calling optimize
Optimizing now...
==============Generating A Star Guess===================
[NL] Running A* from-10  10   0 to  10 -10   0, allowing time = 45 ms
seed:4203137400
=====================Running Octopus Search===================
[A*] Running...
[A*] Max Runtime was reached
[A*] choosing closest path as solution
-------------Waypoint------------
 9.89
-9.89
    0
Count: 19
Time for planner algorithm (RMADER - octopusSolver_ -> run): 56.1ms
[0m[ INFO] [1688978855.457167312]: [NL] A* found a feasible solution![0m
[0m[ INFO] [1688978855.458685462]: [NL] Using the A* guess[0m
The infeasible constraints of the initial Guess
Infeasible Constraints Highlighted in Red
_______________________
Indexes constraints
Obstacles: 0-->4799
Velocity: 4800-->5141
Accel: 5142-->5255
Total number of Constraints: 5336
_______________________
_______________________
Indexes variables
q: 0-->53
n: 54-->1253
d: 1254-->1653
Total number of Variables: 1654
_______________________
[NL] Optimizing now, allowing time = 45ms
[0m[ INFO] [1688978855.506961960]: [NL] Feasible, code=Maxtime_reached[0m
[NL] Feasible Solution found 47 ms 
q[N_]=  9.89 -9.89     0
obj_guess= 46.27698(45.55948 + 0.7174965)
obj_obtained= 46.27698(45.55948 + 0.7174965)
N_effective= 22
t_min= 0
t_max= 8.838835
num control points=40.17652
Time for planner algorithm (RMADER - snlopt.optimize(...)): 112.298ms
Time_needed (line 241, test_nlopt):47ms
N_effective= 22
t_min= 0
t_max= 8.838835
num control points=40.17652
... logging to /home/cminghan/.ros/log/085b948e-1a38-11ee-bc96-00155df263c5/roslaunch-P-D21000977-31904.log
Checking log directory for disk usage. This may take a while.
Press Ctrl-C to interrupt
Done checking log file disk usage. Usage is <1GB.
]2;/home/cminghan/gcopter_ws/src/GCOPTER/gcopter/launch/nlopt_refresh.launch
[1mstarted roslaunch server http://P-D21000977:34811/[0m

SUMMARY
========

PARAMETERS
 * /rosdistro: noetic
 * /rosversion: 1.16.0
 * /test_nlopt/basis: MINVO

NODES
  /
    test_nlopt (gcopter/test_nlopt)

[1mROS_MASTER_URI=http://localhost:11311[0m
]2;/home/cminghan/gcopter_ws/src/GCOPTER/gcopter/launch/nlopt_refresh.launch http://localhost:11311
[1mprocess[test_nlopt-1]: started with pid [31918][0m
[test_nlopt-1] killing on exit
shutting down processing monitor...
... shutting down processing monitor complete
[1mdone[0m
Iteration Number: 47
-----------------------------------------------------
Basis= MINVO
hulls_curves.size()= 0
==============Initializing a SolverNLopt Object===================
t_min= 0
t_max= 8.83883
=========================
initial_state= 
Pos, Vel, Accel, Jerk= -10  10   0 0 0 0 0 0 0 0 0 0
final_state= 
Pos, Vel, Accel, Jerk=  10 -10   0 0 0 0 0 0 0 0 0 0
Calling optimize
Optimizing now...
==============Generating A Star Guess===================
[NL] Running A* from-10  10   0 to  10 -10   0, allowing time = 45 ms
seed:4203137400
=====================Running Octopus Search===================
[A*] Running...
[A*] Max Runtime was reached
[A*] choosing closest path as solution
-------------Waypoint------------
 9.89
-9.89
    0
Count: 19
Time for planner algorithm (RMADER - octopusSolver_ -> run): 52.7ms
[0m[ INFO] [1688978856.897620347]: [NL] A* found a feasible solution![0m
[0m[ INFO] [1688978856.898844134]: [NL] Using the A* guess[0m
The infeasible constraints of the initial Guess
Infeasible Constraints Highlighted in Red
_______________________
Indexes constraints
Obstacles: 0-->4799
Velocity: 4800-->5141
Accel: 5142-->5255
Total number of Constraints: 5336
_______________________
_______________________
Indexes variables
q: 0-->53
n: 54-->1253
d: 1254-->1653
Total number of Variables: 1654
_______________________
[NL] Optimizing now, allowing time = 45ms
[0m[ INFO] [1688978856.948950804]: [NL] Feasible, code=Maxtime_reached[0m
[NL] Feasible Solution found 49 ms 
q[N_]=  9.89 -9.89     0
obj_guess= 46.27698(45.55948 + 0.7174965)
obj_obtained= 46.27698(45.55948 + 0.7174965)
N_effective= 22
t_min= 0
t_max= 8.838835
num control points=40.17652
Time for planner algorithm (RMADER - snlopt.optimize(...)): 110.265ms
Time_needed (line 241, test_nlopt):49ms
N_effective= 22
t_min= 0
t_max= 8.838835
num control points=40.17652
... logging to /home/cminghan/.ros/log/085b948e-1a38-11ee-bc96-00155df263c5/roslaunch-P-D21000977-31935.log
Checking log directory for disk usage. This may take a while.
Press Ctrl-C to interrupt
Done checking log file disk usage. Usage is <1GB.
]2;/home/cminghan/gcopter_ws/src/GCOPTER/gcopter/launch/nlopt_refresh.launch
[1mstarted roslaunch server http://P-D21000977:41959/[0m

SUMMARY
========

PARAMETERS
 * /rosdistro: noetic
 * /rosversion: 1.16.0
 * /test_nlopt/basis: MINVO

NODES
  /
    test_nlopt (gcopter/test_nlopt)

[1mROS_MASTER_URI=http://localhost:11311[0m
]2;/home/cminghan/gcopter_ws/src/GCOPTER/gcopter/launch/nlopt_refresh.launch http://localhost:11311
[1mprocess[test_nlopt-1]: started with pid [31949][0m
[test_nlopt-1] killing on exit
shutting down processing monitor...
... shutting down processing monitor complete
[1mdone[0m
Iteration Number: 48
-----------------------------------------------------
Basis= MINVO
hulls_curves.size()= 0
==============Initializing a SolverNLopt Object===================
t_min= 0
t_max= 8.83883
=========================
initial_state= 
Pos, Vel, Accel, Jerk= -10  10   0 0 0 0 0 0 0 0 0 0
final_state= 
Pos, Vel, Accel, Jerk=  10 -10   0 0 0 0 0 0 0 0 0 0
Calling optimize
Optimizing now...
==============Generating A Star Guess===================
[NL] Running A* from-10  10   0 to  10 -10   0, allowing time = 45 ms
seed:4203137400
=====================Running Octopus Search===================
[A*] Running...
[A*] Max Runtime was reached
[A*] choosing closest path as solution
-------------Waypoint------------
 9.89
-9.89
    0
Count: 19
Time for planner algorithm (RMADER - octopusSolver_ -> run): 53.6ms
[0m[ INFO] [1688978858.429340984]: [NL] A* found a feasible solution![0m
[0m[ INFO] [1688978858.430436006]: [NL] Using the A* guess[0m
The infeasible constraints of the initial Guess
Infeasible Constraints Highlighted in Red
_______________________
Indexes constraints
Obstacles: 0-->4799
Velocity: 4800-->5141
Accel: 5142-->5255
Total number of Constraints: 5336
_______________________
_______________________
Indexes variables
q: 0-->53
n: 54-->1253
d: 1254-->1653
Total number of Variables: 1654
_______________________
[NL] Optimizing now, allowing time = 45ms
[0m[ INFO] [1688978858.476771446]: [NL] Feasible, code=Maxtime_reached[0m
[NL] Feasible Solution found 46 ms 
q[N_]=  9.89 -9.89     0
obj_guess= 46.27698(45.55948 + 0.7174965)
obj_obtained= 46.27698(45.55948 + 0.7174965)
N_effective= 22
t_min= 0
t_max= 8.838835
num control points=40.17652
Time for planner algorithm (RMADER - snlopt.optimize(...)): 108.5549ms
Time_needed (line 241, test_nlopt):45ms
N_effective= 22
t_min= 0
t_max= 8.838835
num control points=40.17652
... logging to /home/cminghan/.ros/log/085b948e-1a38-11ee-bc96-00155df263c5/roslaunch-P-D21000977-31966.log
Checking log directory for disk usage. This may take a while.
Press Ctrl-C to interrupt
Done checking log file disk usage. Usage is <1GB.
]2;/home/cminghan/gcopter_ws/src/GCOPTER/gcopter/launch/nlopt_refresh.launch
[1mstarted roslaunch server http://P-D21000977:41531/[0m

SUMMARY
========

PARAMETERS
 * /rosdistro: noetic
 * /rosversion: 1.16.0
 * /test_nlopt/basis: MINVO

NODES
  /
    test_nlopt (gcopter/test_nlopt)

[1mROS_MASTER_URI=http://localhost:11311[0m
]2;/home/cminghan/gcopter_ws/src/GCOPTER/gcopter/launch/nlopt_refresh.launch http://localhost:11311
[1mprocess[test_nlopt-1]: started with pid [31980][0m
[test_nlopt-1] killing on exit
shutting down processing monitor...
... shutting down processing monitor complete
[1mdone[0m
Iteration Number: 49
-----------------------------------------------------
Basis= MINVO
hulls_curves.size()= 0
==============Initializing a SolverNLopt Object===================
t_min= 0
t_max= 8.83883
=========================
initial_state= 
Pos, Vel, Accel, Jerk= -10  10   0 0 0 0 0 0 0 0 0 0
final_state= 
Pos, Vel, Accel, Jerk=  10 -10   0 0 0 0 0 0 0 0 0 0
Calling optimize
Optimizing now...
==============Generating A Star Guess===================
[NL] Running A* from-10  10   0 to  10 -10   0, allowing time = 45 ms
seed:4203137400
=====================Running Octopus Search===================
[A*] Running...
[A*] Max Runtime was reached
[A*] choosing closest path as solution
-------------Waypoint------------
 9.89
-9.89
    0
Count: 19
Time for planner algorithm (RMADER - octopusSolver_ -> run): 52.1ms
[0m[ INFO] [1688978859.928226108]: [NL] A* found a feasible solution![0m
[0m[ INFO] [1688978859.929337830]: [NL] Using the A* guess[0m
The infeasible constraints of the initial Guess
Infeasible Constraints Highlighted in Red
_______________________
Indexes constraints
Obstacles: 0-->4799
Velocity: 4800-->5141
Accel: 5142-->5255
Total number of Constraints: 5336
_______________________
_______________________
Indexes variables
q: 0-->53
n: 54-->1253
d: 1254-->1653
Total number of Variables: 1654
_______________________
[NL] Optimizing now, allowing time = 45ms
[0m[ INFO] [1688978859.978904115]: [NL] Feasible, code=Maxtime_reached[0m
[NL] Feasible Solution found 49 ms 
q[N_]=  9.89 -9.89     0
obj_guess= 46.27698(45.55948 + 0.7174965)
obj_obtained= 46.27698(45.55948 + 0.7174965)
N_effective= 22
t_min= 0
t_max= 8.838835
num control points=40.17652
Time for planner algorithm (RMADER - snlopt.optimize(...)): 108.922ms
Time_needed (line 241, test_nlopt):49ms
N_effective= 22
t_min= 0
t_max= 8.838835
num control points=40.17652
... logging to /home/cminghan/.ros/log/085b948e-1a38-11ee-bc96-00155df263c5/roslaunch-P-D21000977-31997.log
Checking log directory for disk usage. This may take a while.
Press Ctrl-C to interrupt
Done checking log file disk usage. Usage is <1GB.
]2;/home/cminghan/gcopter_ws/src/GCOPTER/gcopter/launch/nlopt_refresh.launch
[1mstarted roslaunch server http://P-D21000977:44061/[0m

SUMMARY
========

PARAMETERS
 * /rosdistro: noetic
 * /rosversion: 1.16.0
 * /test_nlopt/basis: MINVO

NODES
  /
    test_nlopt (gcopter/test_nlopt)

[1mROS_MASTER_URI=http://localhost:11311[0m
]2;/home/cminghan/gcopter_ws/src/GCOPTER/gcopter/launch/nlopt_refresh.launch http://localhost:11311
[1mprocess[test_nlopt-1]: started with pid [32011][0m
[test_nlopt-1] killing on exit
shutting down processing monitor...
... shutting down processing monitor complete
[1mdone[0m
Iteration Number: 50
-----------------------------------------------------
Basis= MINVO
hulls_curves.size()= 0
==============Initializing a SolverNLopt Object===================
t_min= 0
t_max= 8.83883
=========================
initial_state= 
Pos, Vel, Accel, Jerk= -10  10   0 0 0 0 0 0 0 0 0 0
final_state= 
Pos, Vel, Accel, Jerk=  10 -10   0 0 0 0 0 0 0 0 0 0
Calling optimize
Optimizing now...
==============Generating A Star Guess===================
[NL] Running A* from-10  10   0 to  10 -10   0, allowing time = 45 ms
seed:4203137400
=====================Running Octopus Search===================
[A*] Running...
[A*] Max Runtime was reached
[A*] choosing closest path as solution
-------------Waypoint------------
 9.89
-9.89
    0
Count: 19
Time for planner algorithm (RMADER - octopusSolver_ -> run): 52.8ms
[0m[ INFO] [1688978861.454951021]: [NL] A* found a feasible solution![0m
[0m[ INFO] [1688978861.456401583]: [NL] Using the A* guess[0m
The infeasible constraints of the initial Guess
Infeasible Constraints Highlighted in Red
_______________________
Indexes constraints
Obstacles: 0-->4799
Velocity: 4800-->5141
Accel: 5142-->5255
Total number of Constraints: 5336
_______________________
_______________________
Indexes variables
q: 0-->53
n: 54-->1253
d: 1254-->1653
Total number of Variables: 1654
_______________________
[NL] Optimizing now, allowing time = 45ms
[0m[ INFO] [1688978861.504045567]: [NL] Feasible, code=Maxtime_reached[0m
[NL] Feasible Solution found 46 ms 
q[N_]=  9.89 -9.89     0
obj_guess= 46.27698(45.55948 + 0.7174965)
obj_obtained= 46.27698(45.55948 + 0.7174965)
N_effective= 22
t_min= 0
t_max= 8.838835
num control points=40.17652
Time for planner algorithm (RMADER - snlopt.optimize(...)): 109.2488ms
Time_needed (line 241, test_nlopt):46ms
N_effective= 22
t_min= 0
t_max= 8.838835
num control points=40.17652
... logging to /home/cminghan/.ros/log/085b948e-1a38-11ee-bc96-00155df263c5/roslaunch-P-D21000977-32028.log
Checking log directory for disk usage. This may take a while.
Press Ctrl-C to interrupt
Done checking log file disk usage. Usage is <1GB.
]2;/home/cminghan/gcopter_ws/src/GCOPTER/gcopter/launch/nlopt_refresh.launch
[1mstarted roslaunch server http://P-D21000977:46373/[0m

SUMMARY
========

PARAMETERS
 * /rosdistro: noetic
 * /rosversion: 1.16.0
 * /test_nlopt/basis: MINVO

NODES
  /
    test_nlopt (gcopter/test_nlopt)

[1mROS_MASTER_URI=http://localhost:11311[0m
]2;/home/cminghan/gcopter_ws/src/GCOPTER/gcopter/launch/nlopt_refresh.launch http://localhost:11311
[1mprocess[test_nlopt-1]: started with pid [32042][0m
[test_nlopt-1] killing on exit
shutting down processing monitor...
... shutting down processing monitor complete
[1mdone[0m
Iteration Number: 51
-----------------------------------------------------
Basis= MINVO
hulls_curves.size()= 0
==============Initializing a SolverNLopt Object===================
t_min= 0
t_max= 8.83883
=========================
initial_state= 
Pos, Vel, Accel, Jerk= -10  10   0 0 0 0 0 0 0 0 0 0
final_state= 
Pos, Vel, Accel, Jerk=  10 -10   0 0 0 0 0 0 0 0 0 0
Calling optimize
Optimizing now...
==============Generating A Star Guess===================
[NL] Running A* from-10  10   0 to  10 -10   0, allowing time = 45 ms
seed:4203137400
=====================Running Octopus Search===================
[A*] Running...
[A*] Max Runtime was reached
[A*] choosing closest path as solution
-------------Waypoint------------
 9.89
-9.89
    0
Count: 19
Time for planner algorithm (RMADER - octopusSolver_ -> run): 52.9ms
[0m[ INFO] [1688978862.988649358]: [NL] A* found a feasible solution![0m
[0m[ INFO] [1688978862.990067358]: [NL] Using the A* guess[0m
The infeasible constraints of the initial Guess
Infeasible Constraints Highlighted in Red
_______________________
Indexes constraints
Obstacles: 0-->4799
Velocity: 4800-->5141
Accel: 5142-->5255
Total number of Constraints: 5336
_______________________
_______________________
Indexes variables
q: 0-->53
n: 54-->1253
d: 1254-->1653
Total number of Variables: 1654
_______________________
[NL] Optimizing now, allowing time = 45ms
[0m[ INFO] [1688978863.041123918]: [NL] Feasible, code=Maxtime_reached[0m
[NL] Feasible Solution found 50 ms 
q[N_]=  9.89 -9.89     0
obj_guess= 46.27698(45.55948 + 0.7174965)
obj_obtained= 46.27698(45.55948 + 0.7174965)
N_effective= 22
t_min= 0
t_max= 8.838835
num control points=40.17652
Time for planner algorithm (RMADER - snlopt.optimize(...)): 114.8452ms
Time_needed (line 241, test_nlopt):50ms
N_effective= 22
t_min= 0
t_max= 8.838835
num control points=40.17652
... logging to /home/cminghan/.ros/log/085b948e-1a38-11ee-bc96-00155df263c5/roslaunch-P-D21000977-32059.log
Checking log directory for disk usage. This may take a while.
Press Ctrl-C to interrupt
Done checking log file disk usage. Usage is <1GB.
]2;/home/cminghan/gcopter_ws/src/GCOPTER/gcopter/launch/nlopt_refresh.launch
[1mstarted roslaunch server http://P-D21000977:45013/[0m

SUMMARY
========

PARAMETERS
 * /rosdistro: noetic
 * /rosversion: 1.16.0
 * /test_nlopt/basis: MINVO

NODES
  /
    test_nlopt (gcopter/test_nlopt)

[1mROS_MASTER_URI=http://localhost:11311[0m
]2;/home/cminghan/gcopter_ws/src/GCOPTER/gcopter/launch/nlopt_refresh.launch http://localhost:11311
[1mprocess[test_nlopt-1]: started with pid [32073][0m
[test_nlopt-1] killing on exit
shutting down processing monitor...
... shutting down processing monitor complete
[1mdone[0m
killing:
 * /mockamap_node
 * /rosout
 * /rostopic_18396_1688717394306
killed
Finishing at : Mon Jul 10 16:47:44 +08 2023
[0m[ INFO] [1688978786.082880475]: finish: infill 0.001542%[0m
... logging to /home/cminghan/.ros/log/085b948e-1a38-11ee-bc96-00155df263c5/roslaunch-P-D21000977-30469.log
Checking log directory for disk usage. This may take a while.
Press Ctrl-C to interrupt
Done checking log file disk usage. Usage is <1GB.
]2;/home/cminghan/gcopter_ws/src/GCOPTER/gcopter/launch/test_nlopt.launch
[1mstarted roslaunch server http://P-D21000977:41213/[0m

SUMMARY
========

PARAMETERS
 * /mockamap_node/obstacle_number: 20
 * /mockamap_node/resolution: 0.1
 * /mockamap_node/seed: 0
 * /mockamap_node/type: 2
 * /mockamap_node/width_max: 1.0
 * /mockamap_node/width_min: 1.0
 * /mockamap_node/x_length: 50
 * /mockamap_node/y_length: 50
 * /mockamap_node/z_length: 10
 * /rosdistro: noetic
 * /rosversion: 1.16.0
 * /test_nlopt/basis: MINVO

NODES
  /
    mockamap_node (mockamap/mockamap_node)
    test_nlopt (gcopter/test_nlopt)

[1mROS_MASTER_URI=http://localhost:11311[0m
]2;/home/cminghan/gcopter_ws/src/GCOPTER/gcopter/launch/test_nlopt.launch http://localhost:11311
[1mprocess[test_nlopt-1]: started with pid [30484][0m
[1mprocess[mockamap_node-2]: started with pid [30485][0m
[1m[test_nlopt-1] process has finished cleanly
log file: /home/cminghan/.ros/log/085b948e-1a38-11ee-bc96-00155df263c5/test_nlopt-1*.log[0m
[1m[mockamap_node-2] process has finished cleanly
log file: /home/cminghan/.ros/log/085b948e-1a38-11ee-bc96-00155df263c5/mockamap_node-2*.log[0m
all processes on machine have died, roslaunch will exit
shutting down processing monitor...
... shutting down processing monitor complete
[1mdone[0m
