Starting at : Mon Jul 10 17:28:41 +08 2023
-----------------------------------------------------
Setting workspace and sourcing develspace
workspace set up
Running simulation for rmader using nlopt
-----------------------------------------------------
Iteration Number: 0
-----------------------------------------------------
Basis= MINVO
hulls_curves.size()= 0
==============Initializing a SolverNLopt Object===================
t_min= 0
t_max= 8.83883
=========================
initial_state= 
Pos, Vel, Accel, Jerk= -10  10   0 0 0 0 0 0 0 0 0 0
final_state= 
Pos, Vel, Accel, Jerk=  10 -10   0 0 0 0 0 0 0 0 0 0
Calling optimize
Optimizing now...
==============Generating A Star Guess===================
[NL] Running A* from-10  10   0 to  10 -10   0, allowing time = 60 ms
seed:4203137400
=====================Running Octopus Search===================
[A*] Running...
[A*] Max Runtime was reached
[A*] choosing closest path as solution
-------------Waypoint------------
 9.89
-9.89
    0
Count: 19
Time for planner algorithm (RMADER - octopusSolver_ -> run): 68.2ms
[0m[ INFO] [1688981322.452837064]: [NL] A* found a feasible solution![0m
[0m[ INFO] [1688981322.454104007]: [NL] Using the A* guess[0m
The infeasible constraints of the initial Guess
Infeasible Constraints Highlighted in Red
_______________________
Indexes constraints
Obstacles: 0-->4799
Velocity: 4800-->5141
Accel: 5142-->5255
Total number of Constraints: 5336
_______________________
_______________________
Indexes variables
q: 0-->53
n: 54-->1253
d: 1254-->1653
Total number of Variables: 1654
_______________________
[NL] Optimizing now, allowing time = 60ms
[0m[ INFO] [1688981322.518695625]: [NL] Feasible, code=Maxtime_reached[0m
[NL] Feasible Solution found 64 ms 
q[N_]=  9.89 -9.89     0
obj_guess= 46.27698(45.55948 + 0.7174965)
obj_obtained= 46.27698(45.55948 + 0.7174965)
N_effective= 22
t_min= 0
t_max= 8.838835
num control points=1500.651
Time for planner algorithm (RMADER - snlopt.optimize(...)): 140.7477ms
Time_needed (line 241, test_nlopt):64ms
N_effective= 22
t_min= 0
t_max= 8.838835
num control points=1500.651
Iteration Number: 1
-----------------------------------------------------
Basis= MINVO
hulls_curves.size()= 0
==============Initializing a SolverNLopt Object===================
t_min= 0
t_max= 8.83883
=========================
initial_state= 
Pos, Vel, Accel, Jerk= -10  10   0 0 0 0 0 0 0 0 0 0
final_state= 
Pos, Vel, Accel, Jerk=  10 -10   0 0 0 0 0 0 0 0 0 0
Calling optimize
Optimizing now...
==============Generating A Star Guess===================
[NL] Running A* from-10  10   0 to  10 -10   0, allowing time = 60 ms
seed:4203137400
=====================Running Octopus Search===================
[A*] Running...
[A*] Max Runtime was reached
[A*] choosing closest path as solution
-------------Waypoint------------
 9.89
-9.89
    0
Count: 19
Time for planner algorithm (RMADER - octopusSolver_ -> run): 69.8ms
[0m[ INFO] [1688981323.603110606]: [NL] A* found a feasible solution![0m
[0m[ INFO] [1688981323.604778091]: [NL] Using the A* guess[0m
The infeasible constraints of the initial Guess
Infeasible Constraints Highlighted in Red
_______________________
Indexes constraints
Obstacles: 0-->4799
Velocity: 4800-->5141
Accel: 5142-->5255
Total number of Constraints: 5336
_______________________
_______________________
Indexes variables
q: 0-->53
n: 54-->1253
d: 1254-->1653
Total number of Variables: 1654
_______________________
[NL] Optimizing now, allowing time = 60ms
[0m[ INFO] [1688981323.675046047]: [NL] Feasible, code=Maxtime_reached[0m
[NL] Feasible Solution found 70 ms 
q[N_]=  9.89 -9.89     0
obj_guess= 46.27698(45.55948 + 0.7174965)
obj_obtained= 46.27698(45.55948 + 0.7174965)
N_effective= 22
t_min= 0
t_max= 8.838835
num control points=1500.651
Time for planner algorithm (RMADER - snlopt.optimize(...)): 151.8189ms
Time_needed (line 241, test_nlopt):69ms
N_effective= 22
t_min= 0
t_max= 8.838835
num control points=1500.651
... logging to /home/cminghan/.ros/log/085b948e-1a38-11ee-bc96-00155df263c5/roslaunch-P-D21000977-9396.log
Checking log directory for disk usage. This may take a while.
Press Ctrl-C to interrupt
Done checking log file disk usage. Usage is <1GB.
]2;/home/cminghan/gcopter_ws/src/GCOPTER/gcopter/launch/nlopt_refresh.launch
[1mstarted roslaunch server http://P-D21000977:44045/[0m

SUMMARY
========

PARAMETERS
 * /rosdistro: noetic
 * /rosversion: 1.16.0
 * /test_nlopt/basis: MINVO

NODES
  /
    test_nlopt (gcopter/test_nlopt)

[1mROS_MASTER_URI=http://localhost:11311[0m
]2;/home/cminghan/gcopter_ws/src/GCOPTER/gcopter/launch/nlopt_refresh.launch http://localhost:11311
[1mprocess[test_nlopt-1]: started with pid [9410][0m
[test_nlopt-1] killing on exit
shutting down processing monitor...
... shutting down processing monitor complete
[1mdone[0m
Iteration Number: 2
-----------------------------------------------------
Basis= MINVO
hulls_curves.size()= 0
==============Initializing a SolverNLopt Object===================
t_min= 0
t_max= 8.83883
=========================
initial_state= 
Pos, Vel, Accel, Jerk= -10  10   0 0 0 0 0 0 0 0 0 0
final_state= 
Pos, Vel, Accel, Jerk=  10 -10   0 0 0 0 0 0 0 0 0 0
Calling optimize
Optimizing now...
==============Generating A Star Guess===================
[NL] Running A* from-10  10   0 to  10 -10   0, allowing time = 60 ms
seed:4203137400
=====================Running Octopus Search===================
[A*] Running...
[A*] Max Runtime was reached
[A*] choosing closest path as solution
-------------Waypoint------------
 9.89
-9.89
    0
Count: 19
Time for planner algorithm (RMADER - octopusSolver_ -> run): 67ms
[0m[ INFO] [1688981324.846192973]: [NL] A* found a feasible solution![0m
[0m[ INFO] [1688981324.847323000]: [NL] Using the A* guess[0m
The infeasible constraints of the initial Guess
Infeasible Constraints Highlighted in Red
_______________________
Indexes constraints
Obstacles: 0-->4799
Velocity: 4800-->5141
Accel: 5142-->5255
Total number of Constraints: 5336
_______________________
_______________________
Indexes variables
q: 0-->53
n: 54-->1253
d: 1254-->1653
Total number of Variables: 1654
_______________________
[NL] Optimizing now, allowing time = 60ms
[0m[ INFO] [1688981324.916533301]: [NL] Feasible, code=Maxtime_reached[0m
[NL] Feasible Solution found 69 ms 
q[N_]=  9.89 -9.89     0
obj_guess= 46.27698(45.55948 + 0.7174965)
obj_obtained= 46.27698(45.55948 + 0.7174965)
N_effective= 22
t_min= 0
t_max= 8.838835
num control points=1500.651
Time for planner algorithm (RMADER - snlopt.optimize(...)): 145.9424ms
Time_needed (line 241, test_nlopt):68ms
N_effective= 22
t_min= 0
t_max= 8.838835
num control points=1500.651
... logging to /home/cminghan/.ros/log/085b948e-1a38-11ee-bc96-00155df263c5/roslaunch-P-D21000977-9428.log
Checking log directory for disk usage. This may take a while.
Press Ctrl-C to interrupt
Done checking log file disk usage. Usage is <1GB.
]2;/home/cminghan/gcopter_ws/src/GCOPTER/gcopter/launch/nlopt_refresh.launch
[1mstarted roslaunch server http://P-D21000977:35741/[0m

SUMMARY
========

PARAMETERS
 * /rosdistro: noetic
 * /rosversion: 1.16.0
 * /test_nlopt/basis: MINVO

NODES
  /
    test_nlopt (gcopter/test_nlopt)

[1mROS_MASTER_URI=http://localhost:11311[0m
]2;/home/cminghan/gcopter_ws/src/GCOPTER/gcopter/launch/nlopt_refresh.launch http://localhost:11311
[1mprocess[test_nlopt-1]: started with pid [9442][0m
[test_nlopt-1] killing on exit
shutting down processing monitor...
... shutting down processing monitor complete
[1mdone[0m
Iteration Number: 3
-----------------------------------------------------
Basis= MINVO
hulls_curves.size()= 0
==============Initializing a SolverNLopt Object===================
t_min= 0
t_max= 8.83883
=========================
initial_state= 
Pos, Vel, Accel, Jerk= -10  10   0 0 0 0 0 0 0 0 0 0
final_state= 
Pos, Vel, Accel, Jerk=  10 -10   0 0 0 0 0 0 0 0 0 0
Calling optimize
Optimizing now...
==============Generating A Star Guess===================
[NL] Running A* from-10  10   0 to  10 -10   0, allowing time = 60 ms
seed:4203137400
=====================Running Octopus Search===================
[A*] Running...
[A*] Max Runtime was reached
[A*] choosing closest path as solution
-------------Waypoint------------
 9.89
-9.89
    0
Count: 19
Time for planner algorithm (RMADER - octopusSolver_ -> run): 69ms
[0m[ INFO] [1688981326.299846082]: [NL] A* found a feasible solution![0m
[0m[ INFO] [1688981326.301060635]: [NL] Using the A* guess[0m
The infeasible constraints of the initial Guess
Infeasible Constraints Highlighted in Red
_______________________
Indexes constraints
Obstacles: 0-->4799
Velocity: 4800-->5141
Accel: 5142-->5255
Total number of Constraints: 5336
_______________________
_______________________
Indexes variables
q: 0-->53
n: 54-->1253
d: 1254-->1653
Total number of Variables: 1654
_______________________
[NL] Optimizing now, allowing time = 60ms
[0m[ INFO] [1688981326.366830708]: [NL] Feasible, code=Maxtime_reached[0m
[NL] Feasible Solution found 65 ms 
q[N_]=  9.89 -9.89     0
obj_guess= 46.27698(45.55948 + 0.7174965)
obj_obtained= 46.27698(45.55948 + 0.7174965)
N_effective= 22
t_min= 0
t_max= 8.838835
num control points=1500.651
Time for planner algorithm (RMADER - snlopt.optimize(...)): 142.662ms
Time_needed (line 241, test_nlopt):65ms
N_effective= 22
t_min= 0
t_max= 8.838835
num control points=1500.651
... logging to /home/cminghan/.ros/log/085b948e-1a38-11ee-bc96-00155df263c5/roslaunch-P-D21000977-9459.log
Checking log directory for disk usage. This may take a while.
Press Ctrl-C to interrupt
Done checking log file disk usage. Usage is <1GB.
]2;/home/cminghan/gcopter_ws/src/GCOPTER/gcopter/launch/nlopt_refresh.launch
[1mstarted roslaunch server http://P-D21000977:46157/[0m

SUMMARY
========

PARAMETERS
 * /rosdistro: noetic
 * /rosversion: 1.16.0
 * /test_nlopt/basis: MINVO

NODES
  /
    test_nlopt (gcopter/test_nlopt)

[1mROS_MASTER_URI=http://localhost:11311[0m
]2;/home/cminghan/gcopter_ws/src/GCOPTER/gcopter/launch/nlopt_refresh.launch http://localhost:11311
[1mprocess[test_nlopt-1]: started with pid [9473][0m
[test_nlopt-1] killing on exit
shutting down processing monitor...
... shutting down processing monitor complete
[1mdone[0m
Iteration Number: 4
-----------------------------------------------------
Basis= MINVO
hulls_curves.size()= 0
==============Initializing a SolverNLopt Object===================
t_min= 0
t_max= 8.83883
=========================
initial_state= 
Pos, Vel, Accel, Jerk= -10  10   0 0 0 0 0 0 0 0 0 0
final_state= 
Pos, Vel, Accel, Jerk=  10 -10   0 0 0 0 0 0 0 0 0 0
Calling optimize
Optimizing now...
==============Generating A Star Guess===================
[NL] Running A* from-10  10   0 to  10 -10   0, allowing time = 60 ms
seed:4203137400
=====================Running Octopus Search===================
[A*] Running...
[A*] Max Runtime was reached
[A*] choosing closest path as solution
-------------Waypoint------------
 9.89
-9.89
    0
Count: 19
Time for planner algorithm (RMADER - octopusSolver_ -> run): 67ms
[0m[ INFO] [1688981327.767412964]: [NL] A* found a feasible solution![0m
[0m[ INFO] [1688981327.768518943]: [NL] Using the A* guess[0m
The infeasible constraints of the initial Guess
Infeasible Constraints Highlighted in Red
_______________________
Indexes constraints
Obstacles: 0-->4799
Velocity: 4800-->5141
Accel: 5142-->5255
Total number of Constraints: 5336
_______________________
_______________________
Indexes variables
q: 0-->53
n: 54-->1253
d: 1254-->1653
Total number of Variables: 1654
_______________________
[NL] Optimizing now, allowing time = 60ms
[0m[ INFO] [1688981327.836011916]: [NL] Feasible, code=Maxtime_reached[0m
[NL] Feasible Solution found 67 ms 
q[N_]=  9.89 -9.89     0
obj_guess= 46.27698(45.55948 + 0.7174965)
obj_obtained= 46.27698(45.55948 + 0.7174965)
N_effective= 22
t_min= 0
t_max= 8.838835
num control points=1500.651
Time for planner algorithm (RMADER - snlopt.optimize(...)): 142.1613ms
Time_needed (line 241, test_nlopt):67ms
N_effective= 22
t_min= 0
t_max= 8.838835
num control points=1500.651
... logging to /home/cminghan/.ros/log/085b948e-1a38-11ee-bc96-00155df263c5/roslaunch-P-D21000977-9490.log
Checking log directory for disk usage. This may take a while.
Press Ctrl-C to interrupt
Done checking log file disk usage. Usage is <1GB.
]2;/home/cminghan/gcopter_ws/src/GCOPTER/gcopter/launch/nlopt_refresh.launch
[1mstarted roslaunch server http://P-D21000977:39267/[0m

SUMMARY
========

PARAMETERS
 * /rosdistro: noetic
 * /rosversion: 1.16.0
 * /test_nlopt/basis: MINVO

NODES
  /
    test_nlopt (gcopter/test_nlopt)

[1mROS_MASTER_URI=http://localhost:11311[0m
]2;/home/cminghan/gcopter_ws/src/GCOPTER/gcopter/launch/nlopt_refresh.launch http://localhost:11311
[1mprocess[test_nlopt-1]: started with pid [9504][0m
[test_nlopt-1] killing on exit
shutting down processing monitor...
... shutting down processing monitor complete
[1mdone[0m
Iteration Number: 5
-----------------------------------------------------
Basis= MINVO
hulls_curves.size()= 0
==============Initializing a SolverNLopt Object===================
t_min= 0
t_max= 8.83883
=========================
initial_state= 
Pos, Vel, Accel, Jerk= -10  10   0 0 0 0 0 0 0 0 0 0
final_state= 
Pos, Vel, Accel, Jerk=  10 -10   0 0 0 0 0 0 0 0 0 0
Calling optimize
Optimizing now...
==============Generating A Star Guess===================
[NL] Running A* from-10  10   0 to  10 -10   0, allowing time = 60 ms
seed:4203137400
=====================Running Octopus Search===================
[A*] Running...
[A*] Max Runtime was reached
[A*] choosing closest path as solution
-------------Waypoint------------
 9.89
-9.89
    0
Count: 19
Time for planner algorithm (RMADER - octopusSolver_ -> run): 70.2ms
[0m[ INFO] [1688981329.353721085]: [NL] A* found a feasible solution![0m
[0m[ INFO] [1688981329.354993163]: [NL] Using the A* guess[0m
The infeasible constraints of the initial Guess
Infeasible Constraints Highlighted in Red
_______________________
Indexes constraints
Obstacles: 0-->4799
Velocity: 4800-->5141
Accel: 5142-->5255
Total number of Constraints: 5336
_______________________
_______________________
Indexes variables
q: 0-->53
n: 54-->1253
d: 1254-->1653
Total number of Variables: 1654
_______________________
[NL] Optimizing now, allowing time = 60ms
[0m[ INFO] [1688981329.420217008]: [NL] Feasible, code=Maxtime_reached[0m
[NL] Feasible Solution found 64 ms 
q[N_]=  9.89 -9.89     0
obj_guess= 46.27698(45.55948 + 0.7174965)
obj_obtained= 46.27698(45.55948 + 0.7174965)
N_effective= 22
t_min= 0
t_max= 8.838835
num control points=1500.651
Time for planner algorithm (RMADER - snlopt.optimize(...)): 143.5154ms
Time_needed (line 241, test_nlopt):64ms
N_effective= 22
t_min= 0
t_max= 8.838835
num control points=1500.651
... logging to /home/cminghan/.ros/log/085b948e-1a38-11ee-bc96-00155df263c5/roslaunch-P-D21000977-9521.log
Checking log directory for disk usage. This may take a while.
Press Ctrl-C to interrupt
Done checking log file disk usage. Usage is <1GB.
]2;/home/cminghan/gcopter_ws/src/GCOPTER/gcopter/launch/nlopt_refresh.launch
[1mstarted roslaunch server http://P-D21000977:45285/[0m

SUMMARY
========

PARAMETERS
 * /rosdistro: noetic
 * /rosversion: 1.16.0
 * /test_nlopt/basis: MINVO

NODES
  /
    test_nlopt (gcopter/test_nlopt)

[1mROS_MASTER_URI=http://localhost:11311[0m
]2;/home/cminghan/gcopter_ws/src/GCOPTER/gcopter/launch/nlopt_refresh.launch http://localhost:11311
[1mprocess[test_nlopt-1]: started with pid [9535][0m
[test_nlopt-1] killing on exit
shutting down processing monitor...
... shutting down processing monitor complete
[1mdone[0m
Iteration Number: 6
-----------------------------------------------------
Basis= MINVO
hulls_curves.size()= 0
==============Initializing a SolverNLopt Object===================
t_min= 0
t_max= 8.83883
=========================
initial_state= 
Pos, Vel, Accel, Jerk= -10  10   0 0 0 0 0 0 0 0 0 0
final_state= 
Pos, Vel, Accel, Jerk=  10 -10   0 0 0 0 0 0 0 0 0 0
Calling optimize
Optimizing now...
==============Generating A Star Guess===================
[NL] Running A* from-10  10   0 to  10 -10   0, allowing time = 60 ms
seed:4203137400
=====================Running Octopus Search===================
[A*] Running...
[A*] Max Runtime was reached
[A*] choosing closest path as solution
-------------Waypoint------------
 9.89
-9.89
    0
Count: 19
Time for planner algorithm (RMADER - octopusSolver_ -> run): 67.1ms
[0m[ INFO] [1688981330.751538198]: [NL] A* found a feasible solution![0m
[0m[ INFO] [1688981330.752739475]: [NL] Using the A* guess[0m
The infeasible constraints of the initial Guess
Infeasible Constraints Highlighted in Red
_______________________
Indexes constraints
Obstacles: 0-->4799
Velocity: 4800-->5141
Accel: 5142-->5255
Total number of Constraints: 5336
_______________________
_______________________
Indexes variables
q: 0-->53
n: 54-->1253
d: 1254-->1653
Total number of Variables: 1654
_______________________
[NL] Optimizing now, allowing time = 60ms
[0m[ INFO] [1688981330.814860055]: [NL] Feasible, code=Maxtime_reached[0m
[NL] Feasible Solution found 61 ms 
q[N_]=  9.89 -9.89     0
obj_guess= 46.27698(45.55948 + 0.7174965)
obj_obtained= 46.27698(45.55948 + 0.7174965)
N_effective= 22
t_min= 0
t_max= 8.838835
num control points=1500.651
Time for planner algorithm (RMADER - snlopt.optimize(...)): 137.1221ms
Time_needed (line 241, test_nlopt):61ms
N_effective= 22
t_min= 0
t_max= 8.838835
num control points=1500.651
... logging to /home/cminghan/.ros/log/085b948e-1a38-11ee-bc96-00155df263c5/roslaunch-P-D21000977-9552.log
Checking log directory for disk usage. This may take a while.
Press Ctrl-C to interrupt
Done checking log file disk usage. Usage is <1GB.
]2;/home/cminghan/gcopter_ws/src/GCOPTER/gcopter/launch/nlopt_refresh.launch
[1mstarted roslaunch server http://P-D21000977:46637/[0m

SUMMARY
========

PARAMETERS
 * /rosdistro: noetic
 * /rosversion: 1.16.0
 * /test_nlopt/basis: MINVO

NODES
  /
    test_nlopt (gcopter/test_nlopt)

[1mROS_MASTER_URI=http://localhost:11311[0m
]2;/home/cminghan/gcopter_ws/src/GCOPTER/gcopter/launch/nlopt_refresh.launch http://localhost:11311
[1mprocess[test_nlopt-1]: started with pid [9566][0m
[test_nlopt-1] killing on exit
shutting down processing monitor...
... shutting down processing monitor complete
[1mdone[0m
Iteration Number: 7
-----------------------------------------------------
Basis= MINVO
hulls_curves.size()= 0
==============Initializing a SolverNLopt Object===================
t_min= 0
t_max= 8.83883
=========================
initial_state= 
Pos, Vel, Accel, Jerk= -10  10   0 0 0 0 0 0 0 0 0 0
final_state= 
Pos, Vel, Accel, Jerk=  10 -10   0 0 0 0 0 0 0 0 0 0
Calling optimize
Optimizing now...
==============Generating A Star Guess===================
[NL] Running A* from-10  10   0 to  10 -10   0, allowing time = 60 ms
seed:4203137400
=====================Running Octopus Search===================
[A*] Running...
[A*] Max Runtime was reached
[A*] choosing closest path as solution
-------------Waypoint------------
 9.89
-9.89
    0
Count: 19
Time for planner algorithm (RMADER - octopusSolver_ -> run): 66.9ms
[0m[ INFO] [1688981332.270389277]: [NL] A* found a feasible solution![0m
[0m[ INFO] [1688981332.271703507]: [NL] Using the A* guess[0m
The infeasible constraints of the initial Guess
Infeasible Constraints Highlighted in Red
_______________________
Indexes constraints
Obstacles: 0-->4799
Velocity: 4800-->5141
Accel: 5142-->5255
Total number of Constraints: 5336
_______________________
_______________________
Indexes variables
q: 0-->53
n: 54-->1253
d: 1254-->1653
Total number of Variables: 1654
_______________________
[NL] Optimizing now, allowing time = 60ms
[0m[ INFO] [1688981332.335782129]: [NL] Feasible, code=Maxtime_reached[0m
[NL] Feasible Solution found 63 ms 
q[N_]=  9.89 -9.89     0
obj_guess= 46.27698(45.55948 + 0.7174965)
obj_obtained= 46.27698(45.55948 + 0.7174965)
N_effective= 22
t_min= 0
t_max= 8.838835
num control points=1500.651
Time for planner algorithm (RMADER - snlopt.optimize(...)): 138.889ms
Time_needed (line 241, test_nlopt):63ms
N_effective= 22
t_min= 0
t_max= 8.838835
num control points=1500.651
... logging to /home/cminghan/.ros/log/085b948e-1a38-11ee-bc96-00155df263c5/roslaunch-P-D21000977-9583.log
Checking log directory for disk usage. This may take a while.
Press Ctrl-C to interrupt
Done checking log file disk usage. Usage is <1GB.
]2;/home/cminghan/gcopter_ws/src/GCOPTER/gcopter/launch/nlopt_refresh.launch
[1mstarted roslaunch server http://P-D21000977:45713/[0m

SUMMARY
========

PARAMETERS
 * /rosdistro: noetic
 * /rosversion: 1.16.0
 * /test_nlopt/basis: MINVO

NODES
  /
    test_nlopt (gcopter/test_nlopt)

[1mROS_MASTER_URI=http://localhost:11311[0m
]2;/home/cminghan/gcopter_ws/src/GCOPTER/gcopter/launch/nlopt_refresh.launch http://localhost:11311
[1mprocess[test_nlopt-1]: started with pid [9597][0m
[test_nlopt-1] killing on exit
shutting down processing monitor...
... shutting down processing monitor complete
[1mdone[0m
Iteration Number: 8
-----------------------------------------------------
Basis= MINVO
hulls_curves.size()= 0
==============Initializing a SolverNLopt Object===================
t_min= 0
t_max= 8.83883
=========================
initial_state= 
Pos, Vel, Accel, Jerk= -10  10   0 0 0 0 0 0 0 0 0 0
final_state= 
Pos, Vel, Accel, Jerk=  10 -10   0 0 0 0 0 0 0 0 0 0
Calling optimize
Optimizing now...
==============Generating A Star Guess===================
[NL] Running A* from-10  10   0 to  10 -10   0, allowing time = 60 ms
seed:4203137400
=====================Running Octopus Search===================
[A*] Running...
[A*] Max Runtime was reached
[A*] choosing closest path as solution
-------------Waypoint------------
 9.89
-9.89
    0
Count: 19
Time for planner algorithm (RMADER - octopusSolver_ -> run): 67ms
[0m[ INFO] [1688981333.795038395]: [NL] A* found a feasible solution![0m
[0m[ INFO] [1688981333.796052898]: [NL] Using the A* guess[0m
The infeasible constraints of the initial Guess
Infeasible Constraints Highlighted in Red
_______________________
Indexes constraints
Obstacles: 0-->4799
Velocity: 4800-->5141
Accel: 5142-->5255
Total number of Constraints: 5336
_______________________
_______________________
Indexes variables
q: 0-->53
n: 54-->1253
d: 1254-->1653
Total number of Variables: 1654
_______________________
[NL] Optimizing now, allowing time = 60ms
[0m[ INFO] [1688981333.859897864]: [NL] Feasible, code=Maxtime_reached[0m
[NL] Feasible Solution found 63 ms 
q[N_]=  9.89 -9.89     0
obj_guess= 46.27698(45.55948 + 0.7174965)
obj_obtained= 46.27698(45.55948 + 0.7174965)
N_effective= 22
t_min= 0
t_max= 8.838835
num control points=1500.651
Time for planner algorithm (RMADER - snlopt.optimize(...)): 138.2626ms
Time_needed (line 241, test_nlopt):63ms
N_effective= 22
t_min= 0
t_max= 8.838835
num control points=1500.651
... logging to /home/cminghan/.ros/log/085b948e-1a38-11ee-bc96-00155df263c5/roslaunch-P-D21000977-9614.log
Checking log directory for disk usage. This may take a while.
Press Ctrl-C to interrupt
Done checking log file disk usage. Usage is <1GB.
]2;/home/cminghan/gcopter_ws/src/GCOPTER/gcopter/launch/nlopt_refresh.launch
[1mstarted roslaunch server http://P-D21000977:42107/[0m

SUMMARY
========

PARAMETERS
 * /rosdistro: noetic
 * /rosversion: 1.16.0
 * /test_nlopt/basis: MINVO

NODES
  /
    test_nlopt (gcopter/test_nlopt)

[1mROS_MASTER_URI=http://localhost:11311[0m
]2;/home/cminghan/gcopter_ws/src/GCOPTER/gcopter/launch/nlopt_refresh.launch http://localhost:11311
[1mprocess[test_nlopt-1]: started with pid [9628][0m
[test_nlopt-1] killing on exit
shutting down processing monitor...
... shutting down processing monitor complete
[1mdone[0m
Iteration Number: 9
-----------------------------------------------------
Basis= MINVO
hulls_curves.size()= 0
==============Initializing a SolverNLopt Object===================
t_min= 0
t_max= 8.83883
=========================
initial_state= 
Pos, Vel, Accel, Jerk= -10  10   0 0 0 0 0 0 0 0 0 0
final_state= 
Pos, Vel, Accel, Jerk=  10 -10   0 0 0 0 0 0 0 0 0 0
Calling optimize
Optimizing now...
==============Generating A Star Guess===================
[NL] Running A* from-10  10   0 to  10 -10   0, allowing time = 60 ms
seed:4203137400
=====================Running Octopus Search===================
[A*] Running...
[A*] Max Runtime was reached
[A*] choosing closest path as solution
-------------Waypoint------------
 9.89
-9.89
    0
Count: 19
Time for planner algorithm (RMADER - octopusSolver_ -> run): 67.1ms
[0m[ INFO] [1688981335.309112795]: [NL] A* found a feasible solution![0m
[0m[ INFO] [1688981335.310337990]: [NL] Using the A* guess[0m
The infeasible constraints of the initial Guess
Infeasible Constraints Highlighted in Red
_______________________
Indexes constraints
Obstacles: 0-->4799
Velocity: 4800-->5141
Accel: 5142-->5255
Total number of Constraints: 5336
_______________________
_______________________
Indexes variables
q: 0-->53
n: 54-->1253
d: 1254-->1653
Total number of Variables: 1654
_______________________
[NL] Optimizing now, allowing time = 60ms
[0m[ INFO] [1688981335.376228981]: [NL] Feasible, code=Maxtime_reached[0m
[NL] Feasible Solution found 65 ms 
q[N_]=  9.89 -9.89     0
obj_guess= 46.27698(45.55948 + 0.7174965)
obj_obtained= 46.27698(45.55948 + 0.7174965)
N_effective= 22
t_min= 0
t_max= 8.838835
num control points=1500.651
Time for planner algorithm (RMADER - snlopt.optimize(...)): 141.1649ms
Time_needed (line 241, test_nlopt):65ms
N_effective= 22
t_min= 0
t_max= 8.838835
num control points=1500.651
... logging to /home/cminghan/.ros/log/085b948e-1a38-11ee-bc96-00155df263c5/roslaunch-P-D21000977-9645.log
Checking log directory for disk usage. This may take a while.
Press Ctrl-C to interrupt
Done checking log file disk usage. Usage is <1GB.
]2;/home/cminghan/gcopter_ws/src/GCOPTER/gcopter/launch/nlopt_refresh.launch
[1mstarted roslaunch server http://P-D21000977:32827/[0m

SUMMARY
========

PARAMETERS
 * /rosdistro: noetic
 * /rosversion: 1.16.0
 * /test_nlopt/basis: MINVO

NODES
  /
    test_nlopt (gcopter/test_nlopt)

[1mROS_MASTER_URI=http://localhost:11311[0m
]2;/home/cminghan/gcopter_ws/src/GCOPTER/gcopter/launch/nlopt_refresh.launch http://localhost:11311
[1mprocess[test_nlopt-1]: started with pid [9660][0m
[test_nlopt-1] killing on exit
shutting down processing monitor...
... shutting down processing monitor complete
[1mdone[0m
Iteration Number: 10
-----------------------------------------------------
Basis= MINVO
hulls_curves.size()= 0
==============Initializing a SolverNLopt Object===================
t_min= 0
t_max= 8.83883
=========================
initial_state= 
Pos, Vel, Accel, Jerk= -10  10   0 0 0 0 0 0 0 0 0 0
final_state= 
Pos, Vel, Accel, Jerk=  10 -10   0 0 0 0 0 0 0 0 0 0
Calling optimize
Optimizing now...
==============Generating A Star Guess===================
[NL] Running A* from-10  10   0 to  10 -10   0, allowing time = 60 ms
seed:4203137400
=====================Running Octopus Search===================
[A*] Running...
[A*] Max Runtime was reached
[A*] choosing closest path as solution
-------------Waypoint------------
 9.89
-9.89
    0
Count: 19
Time for planner algorithm (RMADER - octopusSolver_ -> run): 66.7ms
[0m[ INFO] [1688981336.826600686]: [NL] A* found a feasible solution![0m
[0m[ INFO] [1688981336.827613838]: [NL] Using the A* guess[0m
The infeasible constraints of the initial Guess
Infeasible Constraints Highlighted in Red
_______________________
Indexes constraints
Obstacles: 0-->4799
Velocity: 4800-->5141
Accel: 5142-->5255
Total number of Constraints: 5336
_______________________
_______________________
Indexes variables
q: 0-->53
n: 54-->1253
d: 1254-->1653
Total number of Variables: 1654
_______________________
[NL] Optimizing now, allowing time = 60ms
[0m[ INFO] [1688981336.891005011]: [NL] Feasible, code=Maxtime_reached[0m
[NL] Feasible Solution found 63 ms 
q[N_]=  9.89 -9.89     0
obj_guess= 46.27698(45.55948 + 0.7174965)
obj_obtained= 46.27698(45.55948 + 0.7174965)
N_effective= 22
t_min= 0
t_max= 8.838835
num control points=1500.651
Time for planner algorithm (RMADER - snlopt.optimize(...)): 137.771ms
Time_needed (line 241, test_nlopt):63ms
N_effective= 22
t_min= 0
t_max= 8.838835
num control points=1500.651
... logging to /home/cminghan/.ros/log/085b948e-1a38-11ee-bc96-00155df263c5/roslaunch-P-D21000977-9677.log
Checking log directory for disk usage. This may take a while.
Press Ctrl-C to interrupt
Done checking log file disk usage. Usage is <1GB.
]2;/home/cminghan/gcopter_ws/src/GCOPTER/gcopter/launch/nlopt_refresh.launch
[1mstarted roslaunch server http://P-D21000977:43683/[0m

SUMMARY
========

PARAMETERS
 * /rosdistro: noetic
 * /rosversion: 1.16.0
 * /test_nlopt/basis: MINVO

NODES
  /
    test_nlopt (gcopter/test_nlopt)

[1mROS_MASTER_URI=http://localhost:11311[0m
]2;/home/cminghan/gcopter_ws/src/GCOPTER/gcopter/launch/nlopt_refresh.launch http://localhost:11311
[1mprocess[test_nlopt-1]: started with pid [9691][0m
[test_nlopt-1] killing on exit
shutting down processing monitor...
... shutting down processing monitor complete
[1mdone[0m
Iteration Number: 11
-----------------------------------------------------
Basis= MINVO
hulls_curves.size()= 0
==============Initializing a SolverNLopt Object===================
t_min= 0
t_max= 8.83883
=========================
initial_state= 
Pos, Vel, Accel, Jerk= -10  10   0 0 0 0 0 0 0 0 0 0
final_state= 
Pos, Vel, Accel, Jerk=  10 -10   0 0 0 0 0 0 0 0 0 0
Calling optimize
Optimizing now...
==============Generating A Star Guess===================
[NL] Running A* from-10  10   0 to  10 -10   0, allowing time = 60 ms
seed:4203137400
=====================Running Octopus Search===================
[A*] Running...
[A*] Max Runtime was reached
[A*] choosing closest path as solution
-------------Waypoint------------
 9.89
-9.89
    0
Count: 19
Time for planner algorithm (RMADER - octopusSolver_ -> run): 67.3ms
[0m[ INFO] [1688981338.335568520]: [NL] A* found a feasible solution![0m
[0m[ INFO] [1688981338.336669630]: [NL] Using the A* guess[0m
The infeasible constraints of the initial Guess
Infeasible Constraints Highlighted in Red
_______________________
Indexes constraints
Obstacles: 0-->4799
Velocity: 4800-->5141
Accel: 5142-->5255
Total number of Constraints: 5336
_______________________
_______________________
Indexes variables
q: 0-->53
n: 54-->1253
d: 1254-->1653
Total number of Variables: 1654
_______________________
[NL] Optimizing now, allowing time = 60ms
[0m[ INFO] [1688981338.399607498]: [NL] Feasible, code=Maxtime_reached[0m
[NL] Feasible Solution found 62 ms 
q[N_]=  9.89 -9.89     0
obj_guess= 46.27698(45.55948 + 0.7174965)
obj_obtained= 46.27698(45.55948 + 0.7174965)
N_effective= 22
t_min= 0
t_max= 8.838835
num control points=1500.651
Time for planner algorithm (RMADER - snlopt.optimize(...)): 138.0766ms
Time_needed (line 241, test_nlopt):62ms
N_effective= 22
t_min= 0
t_max= 8.838835
num control points=1500.651
... logging to /home/cminghan/.ros/log/085b948e-1a38-11ee-bc96-00155df263c5/roslaunch-P-D21000977-9708.log
Checking log directory for disk usage. This may take a while.
Press Ctrl-C to interrupt
Done checking log file disk usage. Usage is <1GB.
]2;/home/cminghan/gcopter_ws/src/GCOPTER/gcopter/launch/nlopt_refresh.launch
[1mstarted roslaunch server http://P-D21000977:43009/[0m

SUMMARY
========

PARAMETERS
 * /rosdistro: noetic
 * /rosversion: 1.16.0
 * /test_nlopt/basis: MINVO

NODES
  /
    test_nlopt (gcopter/test_nlopt)

[1mROS_MASTER_URI=http://localhost:11311[0m
]2;/home/cminghan/gcopter_ws/src/GCOPTER/gcopter/launch/nlopt_refresh.launch http://localhost:11311
[1mprocess[test_nlopt-1]: started with pid [9722][0m
[test_nlopt-1] killing on exit
shutting down processing monitor...
... shutting down processing monitor complete
[1mdone[0m
Iteration Number: 12
-----------------------------------------------------
Basis= MINVO
hulls_curves.size()= 0
==============Initializing a SolverNLopt Object===================
t_min= 0
t_max= 8.83883
=========================
initial_state= 
Pos, Vel, Accel, Jerk= -10  10   0 0 0 0 0 0 0 0 0 0
final_state= 
Pos, Vel, Accel, Jerk=  10 -10   0 0 0 0 0 0 0 0 0 0
Calling optimize
Optimizing now...
==============Generating A Star Guess===================
[NL] Running A* from-10  10   0 to  10 -10   0, allowing time = 60 ms
seed:4203137400
=====================Running Octopus Search===================
[A*] Running...
[A*] Max Runtime was reached
[A*] choosing closest path as solution
-------------Waypoint------------
 9.89
-9.89
    0
Count: 19
Time for planner algorithm (RMADER - octopusSolver_ -> run): 67.6ms
[0m[ INFO] [1688981339.857284410]: [NL] A* found a feasible solution![0m
[0m[ INFO] [1688981339.858334218]: [NL] Using the A* guess[0m
The infeasible constraints of the initial Guess
Infeasible Constraints Highlighted in Red
_______________________
Indexes constraints
Obstacles: 0-->4799
Velocity: 4800-->5141
Accel: 5142-->5255
Total number of Constraints: 5336
_______________________
_______________________
Indexes variables
q: 0-->53
n: 54-->1253
d: 1254-->1653
Total number of Variables: 1654
_______________________
[NL] Optimizing now, allowing time = 60ms
[0m[ INFO] [1688981339.920689359]: [NL] Feasible, code=Maxtime_reached[0m
[NL] Feasible Solution found 62 ms 
q[N_]=  9.89 -9.89     0
obj_guess= 46.27698(45.55948 + 0.7174965)
obj_obtained= 46.27698(45.55948 + 0.7174965)
N_effective= 22
t_min= 0
t_max= 8.838835
num control points=1500.651
Time for planner algorithm (RMADER - snlopt.optimize(...)): 137.4837ms
Time_needed (line 241, test_nlopt):61ms
N_effective= 22
t_min= 0
t_max= 8.838835
num control points=1500.651
... logging to /home/cminghan/.ros/log/085b948e-1a38-11ee-bc96-00155df263c5/roslaunch-P-D21000977-9739.log
Checking log directory for disk usage. This may take a while.
Press Ctrl-C to interrupt
Done checking log file disk usage. Usage is <1GB.
]2;/home/cminghan/gcopter_ws/src/GCOPTER/gcopter/launch/nlopt_refresh.launch
[1mstarted roslaunch server http://P-D21000977:42205/[0m

SUMMARY
========

PARAMETERS
 * /rosdistro: noetic
 * /rosversion: 1.16.0
 * /test_nlopt/basis: MINVO

NODES
  /
    test_nlopt (gcopter/test_nlopt)

[1mROS_MASTER_URI=http://localhost:11311[0m
]2;/home/cminghan/gcopter_ws/src/GCOPTER/gcopter/launch/nlopt_refresh.launch http://localhost:11311
[1mprocess[test_nlopt-1]: started with pid [9753][0m
[test_nlopt-1] killing on exit
shutting down processing monitor...
... shutting down processing monitor complete
[1mdone[0m
Iteration Number: 13
-----------------------------------------------------
Basis= MINVO
hulls_curves.size()= 0
==============Initializing a SolverNLopt Object===================
t_min= 0
t_max= 8.83883
=========================
initial_state= 
Pos, Vel, Accel, Jerk= -10  10   0 0 0 0 0 0 0 0 0 0
final_state= 
Pos, Vel, Accel, Jerk=  10 -10   0 0 0 0 0 0 0 0 0 0
Calling optimize
Optimizing now...
==============Generating A Star Guess===================
[NL] Running A* from-10  10   0 to  10 -10   0, allowing time = 60 ms
seed:4203137400
=====================Running Octopus Search===================
[A*] Running...
[A*] Max Runtime was reached
[A*] choosing closest path as solution
-------------Waypoint------------
 9.89
-9.89
    0
Count: 19
Time for planner algorithm (RMADER - octopusSolver_ -> run): 67.9ms
[0m[ INFO] [1688981341.369687180]: [NL] A* found a feasible solution![0m
[0m[ INFO] [1688981341.370929172]: [NL] Using the A* guess[0m
The infeasible constraints of the initial Guess
Infeasible Constraints Highlighted in Red
_______________________
Indexes constraints
Obstacles: 0-->4799
Velocity: 4800-->5141
Accel: 5142-->5255
Total number of Constraints: 5336
_______________________
_______________________
Indexes variables
q: 0-->53
n: 54-->1253
d: 1254-->1653
Total number of Variables: 1654
_______________________
[NL] Optimizing now, allowing time = 60ms
[0m[ INFO] [1688981341.435300950]: [NL] Feasible, code=Maxtime_reached[0m
[NL] Feasible Solution found 64 ms 
q[N_]=  9.89 -9.89     0
obj_guess= 46.27698(45.55948 + 0.7174965)
obj_obtained= 46.27698(45.55948 + 0.7174965)
N_effective= 22
t_min= 0
t_max= 8.838835
num control points=1500.651
Time for planner algorithm (RMADER - snlopt.optimize(...)): 140.1554ms
Time_needed (line 241, test_nlopt):63ms
N_effective= 22
t_min= 0
t_max= 8.838835
num control points=1500.651
... logging to /home/cminghan/.ros/log/085b948e-1a38-11ee-bc96-00155df263c5/roslaunch-P-D21000977-9770.log
Checking log directory for disk usage. This may take a while.
Press Ctrl-C to interrupt
Done checking log file disk usage. Usage is <1GB.
]2;/home/cminghan/gcopter_ws/src/GCOPTER/gcopter/launch/nlopt_refresh.launch
[1mstarted roslaunch server http://P-D21000977:35747/[0m

SUMMARY
========

PARAMETERS
 * /rosdistro: noetic
 * /rosversion: 1.16.0
 * /test_nlopt/basis: MINVO

NODES
  /
    test_nlopt (gcopter/test_nlopt)

[1mROS_MASTER_URI=http://localhost:11311[0m
]2;/home/cminghan/gcopter_ws/src/GCOPTER/gcopter/launch/nlopt_refresh.launch http://localhost:11311
[1mprocess[test_nlopt-1]: started with pid [9784][0m
[test_nlopt-1] killing on exit
shutting down processing monitor...
... shutting down processing monitor complete
[1mdone[0m
Iteration Number: 14
-----------------------------------------------------
Basis= MINVO
hulls_curves.size()= 0
==============Initializing a SolverNLopt Object===================
t_min= 0
t_max= 8.83883
=========================
initial_state= 
Pos, Vel, Accel, Jerk= -10  10   0 0 0 0 0 0 0 0 0 0
final_state= 
Pos, Vel, Accel, Jerk=  10 -10   0 0 0 0 0 0 0 0 0 0
Calling optimize
Optimizing now...
==============Generating A Star Guess===================
[NL] Running A* from-10  10   0 to  10 -10   0, allowing time = 60 ms
seed:4203137400
=====================Running Octopus Search===================
[A*] Running...
[A*] Max Runtime was reached
[A*] choosing closest path as solution
-------------Waypoint------------
 9.89
-9.89
    0
Count: 19
Time for planner algorithm (RMADER - octopusSolver_ -> run): 67ms
[0m[ INFO] [1688981342.888194688]: [NL] A* found a feasible solution![0m
[0m[ INFO] [1688981342.889248349]: [NL] Using the A* guess[0m
The infeasible constraints of the initial Guess
Infeasible Constraints Highlighted in Red
_______________________
Indexes constraints
Obstacles: 0-->4799
Velocity: 4800-->5141
Accel: 5142-->5255
Total number of Constraints: 5336
_______________________
_______________________
Indexes variables
q: 0-->53
n: 54-->1253
d: 1254-->1653
Total number of Variables: 1654
_______________________
[NL] Optimizing now, allowing time = 60ms
[0m[ INFO] [1688981342.951207581]: [NL] Feasible, code=Maxtime_reached[0m
[NL] Feasible Solution found 61 ms 
q[N_]=  9.89 -9.89     0
obj_guess= 46.27698(45.55948 + 0.7174965)
obj_obtained= 46.27698(45.55948 + 0.7174965)
N_effective= 22
t_min= 0
t_max= 8.838835
num control points=1500.651
Time for planner algorithm (RMADER - snlopt.optimize(...)): 136.9388ms
Time_needed (line 241, test_nlopt):61ms
N_effective= 22
t_min= 0
t_max= 8.838835
num control points=1500.651
... logging to /home/cminghan/.ros/log/085b948e-1a38-11ee-bc96-00155df263c5/roslaunch-P-D21000977-9801.log
Checking log directory for disk usage. This may take a while.
Press Ctrl-C to interrupt
Done checking log file disk usage. Usage is <1GB.
]2;/home/cminghan/gcopter_ws/src/GCOPTER/gcopter/launch/nlopt_refresh.launch
[1mstarted roslaunch server http://P-D21000977:42437/[0m

SUMMARY
========

PARAMETERS
 * /rosdistro: noetic
 * /rosversion: 1.16.0
 * /test_nlopt/basis: MINVO

NODES
  /
    test_nlopt (gcopter/test_nlopt)

[1mROS_MASTER_URI=http://localhost:11311[0m
]2;/home/cminghan/gcopter_ws/src/GCOPTER/gcopter/launch/nlopt_refresh.launch http://localhost:11311
[1mprocess[test_nlopt-1]: started with pid [9815][0m
[test_nlopt-1] killing on exit
shutting down processing monitor...
... shutting down processing monitor complete
[1mdone[0m
Iteration Number: 15
-----------------------------------------------------
Basis= MINVO
hulls_curves.size()= 0
==============Initializing a SolverNLopt Object===================
t_min= 0
t_max= 8.83883
=========================
initial_state= 
Pos, Vel, Accel, Jerk= -10  10   0 0 0 0 0 0 0 0 0 0
final_state= 
Pos, Vel, Accel, Jerk=  10 -10   0 0 0 0 0 0 0 0 0 0
Calling optimize
Optimizing now...
==============Generating A Star Guess===================
[NL] Running A* from-10  10   0 to  10 -10   0, allowing time = 60 ms
seed:4203137400
=====================Running Octopus Search===================
[A*] Running...
[A*] Max Runtime was reached
[A*] choosing closest path as solution
-------------Waypoint------------
 9.89
-9.89
    0
Count: 19
Time for planner algorithm (RMADER - octopusSolver_ -> run): 67.3ms
[0m[ INFO] [1688981344.393384338]: [NL] A* found a feasible solution![0m
[0m[ INFO] [1688981344.394504583]: [NL] Using the A* guess[0m
The infeasible constraints of the initial Guess
Infeasible Constraints Highlighted in Red
_______________________
Indexes constraints
Obstacles: 0-->4799
Velocity: 4800-->5141
Accel: 5142-->5255
Total number of Constraints: 5336
_______________________
_______________________
Indexes variables
q: 0-->53
n: 54-->1253
d: 1254-->1653
Total number of Variables: 1654
_______________________
[NL] Optimizing now, allowing time = 60ms
[0m[ INFO] [1688981344.455339026]: [NL] Feasible, code=Maxtime_reached[0m
[NL] Feasible Solution found 60 ms 
q[N_]=  9.89 -9.89     0
obj_guess= 46.27698(45.55948 + 0.7174965)
obj_obtained= 46.27698(45.55948 + 0.7174965)
N_effective= 22
t_min= 0
t_max= 8.838835
num control points=1500.651
Time for planner algorithm (RMADER - snlopt.optimize(...)): 136.0804ms
Time_needed (line 241, test_nlopt):60ms
N_effective= 22
t_min= 0
t_max= 8.838835
num control points=1500.651
... logging to /home/cminghan/.ros/log/085b948e-1a38-11ee-bc96-00155df263c5/roslaunch-P-D21000977-9832.log
Checking log directory for disk usage. This may take a while.
Press Ctrl-C to interrupt
Done checking log file disk usage. Usage is <1GB.
]2;/home/cminghan/gcopter_ws/src/GCOPTER/gcopter/launch/nlopt_refresh.launch
[1mstarted roslaunch server http://P-D21000977:41715/[0m

SUMMARY
========

PARAMETERS
 * /rosdistro: noetic
 * /rosversion: 1.16.0
 * /test_nlopt/basis: MINVO

NODES
  /
    test_nlopt (gcopter/test_nlopt)

[1mROS_MASTER_URI=http://localhost:11311[0m
]2;/home/cminghan/gcopter_ws/src/GCOPTER/gcopter/launch/nlopt_refresh.launch http://localhost:11311
[1mprocess[test_nlopt-1]: started with pid [9846][0m
[test_nlopt-1] killing on exit
shutting down processing monitor...
... shutting down processing monitor complete
[1mdone[0m
Iteration Number: 16
-----------------------------------------------------
Basis= MINVO
hulls_curves.size()= 0
==============Initializing a SolverNLopt Object===================
t_min= 0
t_max= 8.83883
=========================
initial_state= 
Pos, Vel, Accel, Jerk= -10  10   0 0 0 0 0 0 0 0 0 0
final_state= 
Pos, Vel, Accel, Jerk=  10 -10   0 0 0 0 0 0 0 0 0 0
Calling optimize
Optimizing now...
==============Generating A Star Guess===================
[NL] Running A* from-10  10   0 to  10 -10   0, allowing time = 60 ms
seed:4203137400
=====================Running Octopus Search===================
[A*] Running...
[A*] Max Runtime was reached
[A*] choosing closest path as solution
-------------Waypoint------------
 9.89
-9.89
    0
Count: 19
Time for planner algorithm (RMADER - octopusSolver_ -> run): 67ms
[0m[ INFO] [1688981345.904523851]: [NL] A* found a feasible solution![0m
[0m[ INFO] [1688981345.905585407]: [NL] Using the A* guess[0m
The infeasible constraints of the initial Guess
Infeasible Constraints Highlighted in Red
_______________________
Indexes constraints
Obstacles: 0-->4799
Velocity: 4800-->5141
Accel: 5142-->5255
Total number of Constraints: 5336
_______________________
_______________________
Indexes variables
q: 0-->53
n: 54-->1253
d: 1254-->1653
Total number of Variables: 1654
_______________________
[NL] Optimizing now, allowing time = 60ms
[0m[ INFO] [1688981345.967681559]: [NL] Feasible, code=Maxtime_reached[0m
[NL] Feasible Solution found 61 ms 
q[N_]=  9.89 -9.89     0
obj_guess= 46.27698(45.55948 + 0.7174965)
obj_obtained= 46.27698(45.55948 + 0.7174965)
N_effective= 22
t_min= 0
t_max= 8.838835
num control points=1500.651
Time for planner algorithm (RMADER - snlopt.optimize(...)): 136.5502ms
Time_needed (line 241, test_nlopt):61ms
N_effective= 22
t_min= 0
t_max= 8.838835
num control points=1500.651
... logging to /home/cminghan/.ros/log/085b948e-1a38-11ee-bc96-00155df263c5/roslaunch-P-D21000977-9863.log
Checking log directory for disk usage. This may take a while.
Press Ctrl-C to interrupt
Done checking log file disk usage. Usage is <1GB.
]2;/home/cminghan/gcopter_ws/src/GCOPTER/gcopter/launch/nlopt_refresh.launch
[1mstarted roslaunch server http://P-D21000977:45523/[0m

SUMMARY
========

PARAMETERS
 * /rosdistro: noetic
 * /rosversion: 1.16.0
 * /test_nlopt/basis: MINVO

NODES
  /
    test_nlopt (gcopter/test_nlopt)

[1mROS_MASTER_URI=http://localhost:11311[0m
]2;/home/cminghan/gcopter_ws/src/GCOPTER/gcopter/launch/nlopt_refresh.launch http://localhost:11311
[1mprocess[test_nlopt-1]: started with pid [9877][0m
[test_nlopt-1] killing on exit
shutting down processing monitor...
... shutting down processing monitor complete
[1mdone[0m
Iteration Number: 17
-----------------------------------------------------
Basis= MINVO
hulls_curves.size()= 0
==============Initializing a SolverNLopt Object===================
t_min= 0
t_max= 8.83883
=========================
initial_state= 
Pos, Vel, Accel, Jerk= -10  10   0 0 0 0 0 0 0 0 0 0
final_state= 
Pos, Vel, Accel, Jerk=  10 -10   0 0 0 0 0 0 0 0 0 0
Calling optimize
Optimizing now...
==============Generating A Star Guess===================
[NL] Running A* from-10  10   0 to  10 -10   0, allowing time = 60 ms
seed:4203137400
=====================Running Octopus Search===================
[A*] Running...
[A*] Max Runtime was reached
[A*] choosing closest path as solution
-------------Waypoint------------
 9.89
-9.89
    0
Count: 19
Time for planner algorithm (RMADER - octopusSolver_ -> run): 67ms
[0m[ INFO] [1688981347.420579030]: [NL] A* found a feasible solution![0m
[0m[ INFO] [1688981347.421734346]: [NL] Using the A* guess[0m
The infeasible constraints of the initial Guess
Infeasible Constraints Highlighted in Red
_______________________
Indexes constraints
Obstacles: 0-->4799
Velocity: 4800-->5141
Accel: 5142-->5255
Total number of Constraints: 5336
_______________________
_______________________
Indexes variables
q: 0-->53
n: 54-->1253
d: 1254-->1653
Total number of Variables: 1654
_______________________
[NL] Optimizing now, allowing time = 60ms
[0m[ INFO] [1688981347.485541994]: [NL] Feasible, code=Maxtime_reached[0m
[NL] Feasible Solution found 63 ms 
q[N_]=  9.89 -9.89     0
obj_guess= 46.27698(45.55948 + 0.7174965)
obj_obtained= 46.27698(45.55948 + 0.7174965)
N_effective= 22
t_min= 0
t_max= 8.838835
num control points=1500.651
Time for planner algorithm (RMADER - snlopt.optimize(...)): 138.4118ms
Time_needed (line 241, test_nlopt):63ms
N_effective= 22
t_min= 0
t_max= 8.838835
num control points=1500.651
... logging to /home/cminghan/.ros/log/085b948e-1a38-11ee-bc96-00155df263c5/roslaunch-P-D21000977-9894.log
Checking log directory for disk usage. This may take a while.
Press Ctrl-C to interrupt
Done checking log file disk usage. Usage is <1GB.
]2;/home/cminghan/gcopter_ws/src/GCOPTER/gcopter/launch/nlopt_refresh.launch
[1mstarted roslaunch server http://P-D21000977:45653/[0m

SUMMARY
========

PARAMETERS
 * /rosdistro: noetic
 * /rosversion: 1.16.0
 * /test_nlopt/basis: MINVO

NODES
  /
    test_nlopt (gcopter/test_nlopt)

[1mROS_MASTER_URI=http://localhost:11311[0m
]2;/home/cminghan/gcopter_ws/src/GCOPTER/gcopter/launch/nlopt_refresh.launch http://localhost:11311
[1mprocess[test_nlopt-1]: started with pid [9908][0m
[test_nlopt-1] killing on exit
shutting down processing monitor...
... shutting down processing monitor complete
[1mdone[0m
Iteration Number: 18
-----------------------------------------------------
Basis= MINVO
hulls_curves.size()= 0
==============Initializing a SolverNLopt Object===================
t_min= 0
t_max= 8.83883
=========================
initial_state= 
Pos, Vel, Accel, Jerk= -10  10   0 0 0 0 0 0 0 0 0 0
final_state= 
Pos, Vel, Accel, Jerk=  10 -10   0 0 0 0 0 0 0 0 0 0
Calling optimize
Optimizing now...
==============Generating A Star Guess===================
[NL] Running A* from-10  10   0 to  10 -10   0, allowing time = 60 ms
seed:4203137400
=====================Running Octopus Search===================
[A*] Running...
[A*] Max Runtime was reached
[A*] choosing closest path as solution
-------------Waypoint------------
 9.89
-9.89
    0
Count: 19
Time for planner algorithm (RMADER - octopusSolver_ -> run): 67.4ms
[0m[ INFO] [1688981348.933671971]: [NL] A* found a feasible solution![0m
[0m[ INFO] [1688981348.934753688]: [NL] Using the A* guess[0m
The infeasible constraints of the initial Guess
Infeasible Constraints Highlighted in Red
_______________________
Indexes constraints
Obstacles: 0-->4799
Velocity: 4800-->5141
Accel: 5142-->5255
Total number of Constraints: 5336
_______________________
_______________________
Indexes variables
q: 0-->53
n: 54-->1253
d: 1254-->1653
Total number of Variables: 1654
_______________________
[NL] Optimizing now, allowing time = 60ms
[0m[ INFO] [1688981348.995912362]: [NL] Feasible, code=Maxtime_reached[0m
[NL] Feasible Solution found 60 ms 
q[N_]=  9.89 -9.89     0
obj_guess= 46.27698(45.55948 + 0.7174965)
obj_obtained= 46.27698(45.55948 + 0.7174965)
N_effective= 22
t_min= 0
t_max= 8.838835
num control points=1500.651
Time for planner algorithm (RMADER - snlopt.optimize(...)): 138.8948ms
Time_needed (line 241, test_nlopt):60ms
N_effective= 22
t_min= 0
t_max= 8.838835
num control points=1500.651
... logging to /home/cminghan/.ros/log/085b948e-1a38-11ee-bc96-00155df263c5/roslaunch-P-D21000977-9925.log
Checking log directory for disk usage. This may take a while.
Press Ctrl-C to interrupt
Done checking log file disk usage. Usage is <1GB.
]2;/home/cminghan/gcopter_ws/src/GCOPTER/gcopter/launch/nlopt_refresh.launch
[1mstarted roslaunch server http://P-D21000977:42843/[0m

SUMMARY
========

PARAMETERS
 * /rosdistro: noetic
 * /rosversion: 1.16.0
 * /test_nlopt/basis: MINVO

NODES
  /
    test_nlopt (gcopter/test_nlopt)

[1mROS_MASTER_URI=http://localhost:11311[0m
]2;/home/cminghan/gcopter_ws/src/GCOPTER/gcopter/launch/nlopt_refresh.launch http://localhost:11311
[1mprocess[test_nlopt-1]: started with pid [9939][0m
[test_nlopt-1] killing on exit
shutting down processing monitor...
... shutting down processing monitor complete
[1mdone[0m
Iteration Number: 19
-----------------------------------------------------
Basis= MINVO
hulls_curves.size()= 0
==============Initializing a SolverNLopt Object===================
t_min= 0
t_max= 8.83883
=========================
initial_state= 
Pos, Vel, Accel, Jerk= -10  10   0 0 0 0 0 0 0 0 0 0
final_state= 
Pos, Vel, Accel, Jerk=  10 -10   0 0 0 0 0 0 0 0 0 0
Calling optimize
Optimizing now...
==============Generating A Star Guess===================
[NL] Running A* from-10  10   0 to  10 -10   0, allowing time = 60 ms
seed:4203137400
=====================Running Octopus Search===================
[A*] Running...
[A*] Max Runtime was reached
[A*] choosing closest path as solution
-------------Waypoint------------
 9.89
-9.89
    0
Count: 19
Time for planner algorithm (RMADER - octopusSolver_ -> run): 67.4ms
[0m[ INFO] [1688981350.433434903]: [NL] A* found a feasible solution![0m
[0m[ INFO] [1688981350.434645414]: [NL] Using the A* guess[0m
The infeasible constraints of the initial Guess
Infeasible Constraints Highlighted in Red
_______________________
Indexes constraints
Obstacles: 0-->4799
Velocity: 4800-->5141
Accel: 5142-->5255
Total number of Constraints: 5336
_______________________
_______________________
Indexes variables
q: 0-->53
n: 54-->1253
d: 1254-->1653
Total number of Variables: 1654
_______________________
[NL] Optimizing now, allowing time = 60ms
[0m[ INFO] [1688981350.500855232]: [NL] Feasible, code=Maxtime_reached[0m
[NL] Feasible Solution found 65 ms 
q[N_]=  9.89 -9.89     0
obj_guess= 46.27698(45.55948 + 0.7174965)
obj_obtained= 46.27698(45.55948 + 0.7174965)
N_effective= 22
t_min= 0
t_max= 8.838835
num control points=1500.651
Time for planner algorithm (RMADER - snlopt.optimize(...)): 142.0015ms
Time_needed (line 241, test_nlopt):65ms
N_effective= 22
t_min= 0
t_max= 8.838835
num control points=1500.651
... logging to /home/cminghan/.ros/log/085b948e-1a38-11ee-bc96-00155df263c5/roslaunch-P-D21000977-9956.log
Checking log directory for disk usage. This may take a while.
Press Ctrl-C to interrupt
Done checking log file disk usage. Usage is <1GB.
]2;/home/cminghan/gcopter_ws/src/GCOPTER/gcopter/launch/nlopt_refresh.launch
[1mstarted roslaunch server http://P-D21000977:40729/[0m

SUMMARY
========

PARAMETERS
 * /rosdistro: noetic
 * /rosversion: 1.16.0
 * /test_nlopt/basis: MINVO

NODES
  /
    test_nlopt (gcopter/test_nlopt)

[1mROS_MASTER_URI=http://localhost:11311[0m
]2;/home/cminghan/gcopter_ws/src/GCOPTER/gcopter/launch/nlopt_refresh.launch http://localhost:11311
[1mprocess[test_nlopt-1]: started with pid [9970][0m
[test_nlopt-1] killing on exit
shutting down processing monitor...
... shutting down processing monitor complete
[1mdone[0m
Iteration Number: 20
-----------------------------------------------------
Basis= MINVO
hulls_curves.size()= 0
==============Initializing a SolverNLopt Object===================
t_min= 0
t_max= 8.83883
=========================
initial_state= 
Pos, Vel, Accel, Jerk= -10  10   0 0 0 0 0 0 0 0 0 0
final_state= 
Pos, Vel, Accel, Jerk=  10 -10   0 0 0 0 0 0 0 0 0 0
Calling optimize
Optimizing now...
==============Generating A Star Guess===================
[NL] Running A* from-10  10   0 to  10 -10   0, allowing time = 60 ms
seed:4203137400
=====================Running Octopus Search===================
[A*] Running...
[A*] Max Runtime was reached
[A*] choosing closest path as solution
-------------Waypoint------------
 9.89
-9.89
    0
Count: 19
Time for planner algorithm (RMADER - octopusSolver_ -> run): 67.1ms
[0m[ INFO] [1688981351.940241423]: [NL] A* found a feasible solution![0m
[0m[ INFO] [1688981351.941450535]: [NL] Using the A* guess[0m
The infeasible constraints of the initial Guess
Infeasible Constraints Highlighted in Red
_______________________
Indexes constraints
Obstacles: 0-->4799
Velocity: 4800-->5141
Accel: 5142-->5255
Total number of Constraints: 5336
_______________________
_______________________
Indexes variables
q: 0-->53
n: 54-->1253
d: 1254-->1653
Total number of Variables: 1654
_______________________
[NL] Optimizing now, allowing time = 60ms
[0m[ INFO] [1688981352.005242468]: [NL] Feasible, code=Maxtime_reached[0m
[NL] Feasible Solution found 63 ms 
q[N_]=  9.89 -9.89     0
obj_guess= 46.27698(45.55948 + 0.7174965)
obj_obtained= 46.27698(45.55948 + 0.7174965)
N_effective= 22
t_min= 0
t_max= 8.838835
num control points=1500.651
Time for planner algorithm (RMADER - snlopt.optimize(...)): 139.5431ms
Time_needed (line 241, test_nlopt):63ms
N_effective= 22
t_min= 0
t_max= 8.838835
num control points=1500.651
... logging to /home/cminghan/.ros/log/085b948e-1a38-11ee-bc96-00155df263c5/roslaunch-P-D21000977-9987.log
Checking log directory for disk usage. This may take a while.
Press Ctrl-C to interrupt
Done checking log file disk usage. Usage is <1GB.
]2;/home/cminghan/gcopter_ws/src/GCOPTER/gcopter/launch/nlopt_refresh.launch
[1mstarted roslaunch server http://P-D21000977:32855/[0m

SUMMARY
========

PARAMETERS
 * /rosdistro: noetic
 * /rosversion: 1.16.0
 * /test_nlopt/basis: MINVO

NODES
  /
    test_nlopt (gcopter/test_nlopt)

[1mROS_MASTER_URI=http://localhost:11311[0m
]2;/home/cminghan/gcopter_ws/src/GCOPTER/gcopter/launch/nlopt_refresh.launch http://localhost:11311
[1mprocess[test_nlopt-1]: started with pid [10001][0m
[test_nlopt-1] killing on exit
shutting down processing monitor...
... shutting down processing monitor complete
[1mdone[0m
Iteration Number: 21
-----------------------------------------------------
Basis= MINVO
hulls_curves.size()= 0
==============Initializing a SolverNLopt Object===================
t_min= 0
t_max= 8.83883
=========================
initial_state= 
Pos, Vel, Accel, Jerk= -10  10   0 0 0 0 0 0 0 0 0 0
final_state= 
Pos, Vel, Accel, Jerk=  10 -10   0 0 0 0 0 0 0 0 0 0
Calling optimize
Optimizing now...
==============Generating A Star Guess===================
[NL] Running A* from-10  10   0 to  10 -10   0, allowing time = 60 ms
seed:4203137400
=====================Running Octopus Search===================
[A*] Running...
[A*] Max Runtime was reached
[A*] choosing closest path as solution
-------------Waypoint------------
 9.89
-9.89
    0
Count: 19
Time for planner algorithm (RMADER - octopusSolver_ -> run): 67.1ms
[0m[ INFO] [1688981353.549941560]: [NL] A* found a feasible solution![0m
[0m[ INFO] [1688981353.551047584]: [NL] Using the A* guess[0m
The infeasible constraints of the initial Guess
Infeasible Constraints Highlighted in Red
_______________________
Indexes constraints
Obstacles: 0-->4799
Velocity: 4800-->5141
Accel: 5142-->5255
Total number of Constraints: 5336
_______________________
_______________________
Indexes variables
q: 0-->53
n: 54-->1253
d: 1254-->1653
Total number of Variables: 1654
_______________________
[NL] Optimizing now, allowing time = 60ms
[0m[ INFO] [1688981353.615452618]: [NL] Feasible, code=Maxtime_reached[0m
[NL] Feasible Solution found 64 ms 
q[N_]=  9.89 -9.89     0
obj_guess= 46.27698(45.55948 + 0.7174965)
obj_obtained= 46.27698(45.55948 + 0.7174965)
N_effective= 22
t_min= 0
t_max= 8.838835
num control points=1500.651
Time for planner algorithm (RMADER - snlopt.optimize(...)): 139.5189ms
Time_needed (line 241, test_nlopt):63ms
N_effective= 22
t_min= 0
t_max= 8.838835
num control points=1500.651
... logging to /home/cminghan/.ros/log/085b948e-1a38-11ee-bc96-00155df263c5/roslaunch-P-D21000977-10018.log
Checking log directory for disk usage. This may take a while.
Press Ctrl-C to interrupt
Done checking log file disk usage. Usage is <1GB.
]2;/home/cminghan/gcopter_ws/src/GCOPTER/gcopter/launch/nlopt_refresh.launch
[1mstarted roslaunch server http://P-D21000977:41135/[0m

SUMMARY
========

PARAMETERS
 * /rosdistro: noetic
 * /rosversion: 1.16.0
 * /test_nlopt/basis: MINVO

NODES
  /
    test_nlopt (gcopter/test_nlopt)

[1mROS_MASTER_URI=http://localhost:11311[0m
]2;/home/cminghan/gcopter_ws/src/GCOPTER/gcopter/launch/nlopt_refresh.launch http://localhost:11311
[1mprocess[test_nlopt-1]: started with pid [10032][0m
[test_nlopt-1] killing on exit
shutting down processing monitor...
... shutting down processing monitor complete
[1mdone[0m
Iteration Number: 22
-----------------------------------------------------
Basis= MINVO
hulls_curves.size()= 0
==============Initializing a SolverNLopt Object===================
t_min= 0
t_max= 8.83883
=========================
initial_state= 
Pos, Vel, Accel, Jerk= -10  10   0 0 0 0 0 0 0 0 0 0
final_state= 
Pos, Vel, Accel, Jerk=  10 -10   0 0 0 0 0 0 0 0 0 0
Calling optimize
Optimizing now...
==============Generating A Star Guess===================
[NL] Running A* from-10  10   0 to  10 -10   0, allowing time = 60 ms
seed:4203137400
=====================Running Octopus Search===================
[A*] Running...
[A*] Max Runtime was reached
[A*] choosing closest path as solution
-------------Waypoint------------
 9.89
-9.89
    0
Count: 19
Time for planner algorithm (RMADER - octopusSolver_ -> run): 67.2ms
[0m[ INFO] [1688981355.156966194]: [NL] A* found a feasible solution![0m
[0m[ INFO] [1688981355.158241867]: [NL] Using the A* guess[0m
The infeasible constraints of the initial Guess
Infeasible Constraints Highlighted in Red
_______________________
Indexes constraints
Obstacles: 0-->4799
Velocity: 4800-->5141
Accel: 5142-->5255
Total number of Constraints: 5336
_______________________
_______________________
Indexes variables
q: 0-->53
n: 54-->1253
d: 1254-->1653
Total number of Variables: 1654
_______________________
[NL] Optimizing now, allowing time = 60ms
[0m[ INFO] [1688981355.221715778]: [NL] Feasible, code=Maxtime_reached[0m
[NL] Feasible Solution found 63 ms 
q[N_]=  9.89 -9.89     0
obj_guess= 46.27698(45.55948 + 0.7174965)
obj_obtained= 46.27698(45.55948 + 0.7174965)
N_effective= 22
t_min= 0
t_max= 8.838835
num control points=1500.651
Time for planner algorithm (RMADER - snlopt.optimize(...)): 138.3375ms
Time_needed (line 241, test_nlopt):63ms
N_effective= 22
t_min= 0
t_max= 8.838835
num control points=1500.651
... logging to /home/cminghan/.ros/log/085b948e-1a38-11ee-bc96-00155df263c5/roslaunch-P-D21000977-10049.log
Checking log directory for disk usage. This may take a while.
Press Ctrl-C to interrupt
Done checking log file disk usage. Usage is <1GB.
]2;/home/cminghan/gcopter_ws/src/GCOPTER/gcopter/launch/nlopt_refresh.launch
[1mstarted roslaunch server http://P-D21000977:37963/[0m

SUMMARY
========

PARAMETERS
 * /rosdistro: noetic
 * /rosversion: 1.16.0
 * /test_nlopt/basis: MINVO

NODES
  /
    test_nlopt (gcopter/test_nlopt)

[1mROS_MASTER_URI=http://localhost:11311[0m
]2;/home/cminghan/gcopter_ws/src/GCOPTER/gcopter/launch/nlopt_refresh.launch http://localhost:11311
[1mprocess[test_nlopt-1]: started with pid [10063][0m
[test_nlopt-1] killing on exit
shutting down processing monitor...
... shutting down processing monitor complete
[1mdone[0m
Iteration Number: 23
-----------------------------------------------------
Basis= MINVO
hulls_curves.size()= 0
==============Initializing a SolverNLopt Object===================
t_min= 0
t_max= 8.83883
=========================
initial_state= 
Pos, Vel, Accel, Jerk= -10  10   0 0 0 0 0 0 0 0 0 0
final_state= 
Pos, Vel, Accel, Jerk=  10 -10   0 0 0 0 0 0 0 0 0 0
Calling optimize
Optimizing now...
==============Generating A Star Guess===================
[NL] Running A* from-10  10   0 to  10 -10   0, allowing time = 60 ms
seed:4203137400
=====================Running Octopus Search===================
[A*] Running...
[A*] Max Runtime was reached
[A*] choosing closest path as solution
-------------Waypoint------------
 9.89
-9.89
    0
Count: 19
Time for planner algorithm (RMADER - octopusSolver_ -> run): 67.2ms
[0m[ INFO] [1688981356.780777121]: [NL] A* found a feasible solution![0m
[0m[ INFO] [1688981356.781849935]: [NL] Using the A* guess[0m
The infeasible constraints of the initial Guess
Infeasible Constraints Highlighted in Red
_______________________
Indexes constraints
Obstacles: 0-->4799
Velocity: 4800-->5141
Accel: 5142-->5255
Total number of Constraints: 5336
_______________________
_______________________
Indexes variables
q: 0-->53
n: 54-->1253
d: 1254-->1653
Total number of Variables: 1654
_______________________
[NL] Optimizing now, allowing time = 60ms
[0m[ INFO] [1688981356.847617043]: [NL] Feasible, code=Maxtime_reached[0m
[NL] Feasible Solution found 65 ms 
q[N_]=  9.89 -9.89     0
obj_guess= 46.27698(45.55948 + 0.7174965)
obj_obtained= 46.27698(45.55948 + 0.7174965)
N_effective= 22
t_min= 0
t_max= 8.838835
num control points=1500.651
Time for planner algorithm (RMADER - snlopt.optimize(...)): 140.9021ms
Time_needed (line 241, test_nlopt):65ms
N_effective= 22
t_min= 0
t_max= 8.838835
num control points=1500.651
... logging to /home/cminghan/.ros/log/085b948e-1a38-11ee-bc96-00155df263c5/roslaunch-P-D21000977-10080.log
Checking log directory for disk usage. This may take a while.
Press Ctrl-C to interrupt
Done checking log file disk usage. Usage is <1GB.
]2;/home/cminghan/gcopter_ws/src/GCOPTER/gcopter/launch/nlopt_refresh.launch
[1mstarted roslaunch server http://P-D21000977:33681/[0m

SUMMARY
========

PARAMETERS
 * /rosdistro: noetic
 * /rosversion: 1.16.0
 * /test_nlopt/basis: MINVO

NODES
  /
    test_nlopt (gcopter/test_nlopt)

[1mROS_MASTER_URI=http://localhost:11311[0m
]2;/home/cminghan/gcopter_ws/src/GCOPTER/gcopter/launch/nlopt_refresh.launch http://localhost:11311
[1mprocess[test_nlopt-1]: started with pid [10094][0m
[test_nlopt-1] killing on exit
shutting down processing monitor...
... shutting down processing monitor complete
[1mdone[0m
Iteration Number: 24
-----------------------------------------------------
Basis= MINVO
hulls_curves.size()= 0
==============Initializing a SolverNLopt Object===================
t_min= 0
t_max= 8.83883
=========================
initial_state= 
Pos, Vel, Accel, Jerk= -10  10   0 0 0 0 0 0 0 0 0 0
final_state= 
Pos, Vel, Accel, Jerk=  10 -10   0 0 0 0 0 0 0 0 0 0
Calling optimize
Optimizing now...
==============Generating A Star Guess===================
[NL] Running A* from-10  10   0 to  10 -10   0, allowing time = 60 ms
seed:4203137400
=====================Running Octopus Search===================
[A*] Running...
[A*] Max Runtime was reached
[A*] choosing closest path as solution
-------------Waypoint------------
 9.89
-9.89
    0
Count: 19
Time for planner algorithm (RMADER - octopusSolver_ -> run): 68ms
[0m[ INFO] [1688981358.288540974]: [NL] A* found a feasible solution![0m
[0m[ INFO] [1688981358.289514042]: [NL] Using the A* guess[0m
The infeasible constraints of the initial Guess
Infeasible Constraints Highlighted in Red
_______________________
Indexes constraints
Obstacles: 0-->4799
Velocity: 4800-->5141
Accel: 5142-->5255
Total number of Constraints: 5336
_______________________
_______________________
Indexes variables
q: 0-->53
n: 54-->1253
d: 1254-->1653
Total number of Variables: 1654
_______________________
[NL] Optimizing now, allowing time = 60ms
[0m[ INFO] [1688981358.354549921]: [NL] Feasible, code=Maxtime_reached[0m
[NL] Feasible Solution found 64 ms 
q[N_]=  9.89 -9.89     0
obj_guess= 46.27698(45.55948 + 0.7174965)
obj_obtained= 46.27698(45.55948 + 0.7174965)
N_effective= 22
t_min= 0
t_max= 8.838835
num control points=1500.651
Time for planner algorithm (RMADER - snlopt.optimize(...)): 140.7714ms
Time_needed (line 241, test_nlopt):64ms
N_effective= 22
t_min= 0
t_max= 8.838835
num control points=1500.651
... logging to /home/cminghan/.ros/log/085b948e-1a38-11ee-bc96-00155df263c5/roslaunch-P-D21000977-10111.log
Checking log directory for disk usage. This may take a while.
Press Ctrl-C to interrupt
Done checking log file disk usage. Usage is <1GB.
]2;/home/cminghan/gcopter_ws/src/GCOPTER/gcopter/launch/nlopt_refresh.launch
[1mstarted roslaunch server http://P-D21000977:43645/[0m

SUMMARY
========

PARAMETERS
 * /rosdistro: noetic
 * /rosversion: 1.16.0
 * /test_nlopt/basis: MINVO

NODES
  /
    test_nlopt (gcopter/test_nlopt)

[1mROS_MASTER_URI=http://localhost:11311[0m
]2;/home/cminghan/gcopter_ws/src/GCOPTER/gcopter/launch/nlopt_refresh.launch http://localhost:11311
[1mprocess[test_nlopt-1]: started with pid [10125][0m
[test_nlopt-1] killing on exit
shutting down processing monitor...
... shutting down processing monitor complete
[1mdone[0m
Iteration Number: 25
-----------------------------------------------------
Basis= MINVO
hulls_curves.size()= 0
==============Initializing a SolverNLopt Object===================
t_min= 0
t_max= 8.83883
=========================
initial_state= 
Pos, Vel, Accel, Jerk= -10  10   0 0 0 0 0 0 0 0 0 0
final_state= 
Pos, Vel, Accel, Jerk=  10 -10   0 0 0 0 0 0 0 0 0 0
Calling optimize
Optimizing now...
==============Generating A Star Guess===================
[NL] Running A* from-10  10   0 to  10 -10   0, allowing time = 60 ms
seed:4203137400
=====================Running Octopus Search===================
[A*] Running...
[A*] Max Runtime was reached
[A*] choosing closest path as solution
-------------Waypoint------------
 9.89
-9.89
    0
Count: 19
Time for planner algorithm (RMADER - octopusSolver_ -> run): 67.2ms
[0m[ INFO] [1688981359.800636317]: [NL] A* found a feasible solution![0m
[0m[ INFO] [1688981359.801646447]: [NL] Using the A* guess[0m
The infeasible constraints of the initial Guess
Infeasible Constraints Highlighted in Red
_______________________
Indexes constraints
Obstacles: 0-->4799
Velocity: 4800-->5141
Accel: 5142-->5255
Total number of Constraints: 5336
_______________________
_______________________
Indexes variables
q: 0-->53
n: 54-->1253
d: 1254-->1653
Total number of Variables: 1654
_______________________
[NL] Optimizing now, allowing time = 60ms
[0m[ INFO] [1688981359.864400975]: [NL] Feasible, code=Maxtime_reached[0m
[NL] Feasible Solution found 62 ms 
q[N_]=  9.89 -9.89     0
obj_guess= 46.27698(45.55948 + 0.7174965)
obj_obtained= 46.27698(45.55948 + 0.7174965)
N_effective= 22
t_min= 0
t_max= 8.838835
num control points=1500.651
Time for planner algorithm (RMADER - snlopt.optimize(...)): 138.2791ms
Time_needed (line 241, test_nlopt):62ms
N_effective= 22
t_min= 0
t_max= 8.838835
num control points=1500.651
... logging to /home/cminghan/.ros/log/085b948e-1a38-11ee-bc96-00155df263c5/roslaunch-P-D21000977-10142.log
Checking log directory for disk usage. This may take a while.
Press Ctrl-C to interrupt
Done checking log file disk usage. Usage is <1GB.
]2;/home/cminghan/gcopter_ws/src/GCOPTER/gcopter/launch/nlopt_refresh.launch
[1mstarted roslaunch server http://P-D21000977:40967/[0m

SUMMARY
========

PARAMETERS
 * /rosdistro: noetic
 * /rosversion: 1.16.0
 * /test_nlopt/basis: MINVO

NODES
  /
    test_nlopt (gcopter/test_nlopt)

[1mROS_MASTER_URI=http://localhost:11311[0m
]2;/home/cminghan/gcopter_ws/src/GCOPTER/gcopter/launch/nlopt_refresh.launch http://localhost:11311
[1mprocess[test_nlopt-1]: started with pid [10156][0m
[test_nlopt-1] killing on exit
shutting down processing monitor...
... shutting down processing monitor complete
[1mdone[0m
Iteration Number: 26
-----------------------------------------------------
Basis= MINVO
hulls_curves.size()= 0
==============Initializing a SolverNLopt Object===================
t_min= 0
t_max= 8.83883
=========================
initial_state= 
Pos, Vel, Accel, Jerk= -10  10   0 0 0 0 0 0 0 0 0 0
final_state= 
Pos, Vel, Accel, Jerk=  10 -10   0 0 0 0 0 0 0 0 0 0
Calling optimize
Optimizing now...
==============Generating A Star Guess===================
[NL] Running A* from-10  10   0 to  10 -10   0, allowing time = 60 ms
seed:4203137400
=====================Running Octopus Search===================
[A*] Running...
[A*] Max Runtime was reached
[A*] choosing closest path as solution
-------------Waypoint------------
 9.89
-9.89
    0
Count: 19
Time for planner algorithm (RMADER - octopusSolver_ -> run): 67.5ms
[0m[ INFO] [1688981361.307466099]: [NL] A* found a feasible solution![0m
[0m[ INFO] [1688981361.308649100]: [NL] Using the A* guess[0m
The infeasible constraints of the initial Guess
Infeasible Constraints Highlighted in Red
_______________________
Indexes constraints
Obstacles: 0-->4799
Velocity: 4800-->5141
Accel: 5142-->5255
Total number of Constraints: 5336
_______________________
_______________________
Indexes variables
q: 0-->53
n: 54-->1253
d: 1254-->1653
Total number of Variables: 1654
_______________________
[NL] Optimizing now, allowing time = 60ms
[0m[ INFO] [1688981361.377014517]: [NL] Feasible, code=Maxtime_reached[0m
[NL] Feasible Solution found 68 ms 
q[N_]=  9.89 -9.89     0
obj_guess= 46.27698(45.55948 + 0.7174965)
obj_obtained= 46.27698(45.55948 + 0.7174965)
N_effective= 22
t_min= 0
t_max= 8.838835
num control points=1500.651
Time for planner algorithm (RMADER - snlopt.optimize(...)): 143.6237ms
Time_needed (line 241, test_nlopt):68ms
N_effective= 22
t_min= 0
t_max= 8.838835
num control points=1500.651
... logging to /home/cminghan/.ros/log/085b948e-1a38-11ee-bc96-00155df263c5/roslaunch-P-D21000977-10173.log
Checking log directory for disk usage. This may take a while.
Press Ctrl-C to interrupt
Done checking log file disk usage. Usage is <1GB.
]2;/home/cminghan/gcopter_ws/src/GCOPTER/gcopter/launch/nlopt_refresh.launch
[1mstarted roslaunch server http://P-D21000977:35771/[0m

SUMMARY
========

PARAMETERS
 * /rosdistro: noetic
 * /rosversion: 1.16.0
 * /test_nlopt/basis: MINVO

NODES
  /
    test_nlopt (gcopter/test_nlopt)

[1mROS_MASTER_URI=http://localhost:11311[0m
]2;/home/cminghan/gcopter_ws/src/GCOPTER/gcopter/launch/nlopt_refresh.launch http://localhost:11311
[1mprocess[test_nlopt-1]: started with pid [10187][0m
[test_nlopt-1] killing on exit
shutting down processing monitor...
... shutting down processing monitor complete
[1mdone[0m
Iteration Number: 27
-----------------------------------------------------
Basis= MINVO
hulls_curves.size()= 0
==============Initializing a SolverNLopt Object===================
t_min= 0
t_max= 8.83883
=========================
initial_state= 
Pos, Vel, Accel, Jerk= -10  10   0 0 0 0 0 0 0 0 0 0
final_state= 
Pos, Vel, Accel, Jerk=  10 -10   0 0 0 0 0 0 0 0 0 0
Calling optimize
Optimizing now...
==============Generating A Star Guess===================
[NL] Running A* from-10  10   0 to  10 -10   0, allowing time = 60 ms
seed:4203137400
=====================Running Octopus Search===================
[A*] Running...
[A*] Max Runtime was reached
[A*] choosing closest path as solution
-------------Waypoint------------
 9.89
-9.89
    0
Count: 19
Time for planner algorithm (RMADER - octopusSolver_ -> run): 67.3ms
[0m[ INFO] [1688981362.818959670]: [NL] A* found a feasible solution![0m
[0m[ INFO] [1688981362.819999836]: [NL] Using the A* guess[0m
The infeasible constraints of the initial Guess
Infeasible Constraints Highlighted in Red
_______________________
Indexes constraints
Obstacles: 0-->4799
Velocity: 4800-->5141
Accel: 5142-->5255
Total number of Constraints: 5336
_______________________
_______________________
Indexes variables
q: 0-->53
n: 54-->1253
d: 1254-->1653
Total number of Variables: 1654
_______________________
[NL] Optimizing now, allowing time = 60ms
[0m[ INFO] [1688981362.885302625]: [NL] Feasible, code=Maxtime_reached[0m
[NL] Feasible Solution found 65 ms 
q[N_]=  9.89 -9.89     0
obj_guess= 46.27698(45.55948 + 0.7174965)
obj_obtained= 46.27698(45.55948 + 0.7174965)
N_effective= 22
t_min= 0
t_max= 8.838835
num control points=1500.651
Time for planner algorithm (RMADER - snlopt.optimize(...)): 141.406ms
Time_needed (line 241, test_nlopt):64ms
N_effective= 22
t_min= 0
t_max= 8.838835
num control points=1500.651
... logging to /home/cminghan/.ros/log/085b948e-1a38-11ee-bc96-00155df263c5/roslaunch-P-D21000977-10204.log
Checking log directory for disk usage. This may take a while.
Press Ctrl-C to interrupt
Done checking log file disk usage. Usage is <1GB.
]2;/home/cminghan/gcopter_ws/src/GCOPTER/gcopter/launch/nlopt_refresh.launch
[1mstarted roslaunch server http://P-D21000977:43823/[0m

SUMMARY
========

PARAMETERS
 * /rosdistro: noetic
 * /rosversion: 1.16.0
 * /test_nlopt/basis: MINVO

NODES
  /
    test_nlopt (gcopter/test_nlopt)

[1mROS_MASTER_URI=http://localhost:11311[0m
]2;/home/cminghan/gcopter_ws/src/GCOPTER/gcopter/launch/nlopt_refresh.launch http://localhost:11311
[1mprocess[test_nlopt-1]: started with pid [10218][0m
[test_nlopt-1] killing on exit
shutting down processing monitor...
... shutting down processing monitor complete
[1mdone[0m
Iteration Number: 28
-----------------------------------------------------
Basis= MINVO
hulls_curves.size()= 0
==============Initializing a SolverNLopt Object===================
t_min= 0
t_max= 8.83883
=========================
initial_state= 
Pos, Vel, Accel, Jerk= -10  10   0 0 0 0 0 0 0 0 0 0
final_state= 
Pos, Vel, Accel, Jerk=  10 -10   0 0 0 0 0 0 0 0 0 0
Calling optimize
Optimizing now...
==============Generating A Star Guess===================
[NL] Running A* from-10  10   0 to  10 -10   0, allowing time = 60 ms
seed:4203137400
=====================Running Octopus Search===================
[A*] Running...
[A*] Max Runtime was reached
[A*] choosing closest path as solution
-------------Waypoint------------
 9.89
-9.89
    0
Count: 19
Time for planner algorithm (RMADER - octopusSolver_ -> run): 68.5ms
[0m[ INFO] [1688981364.329455934]: [NL] A* found a feasible solution![0m
[0m[ INFO] [1688981364.330756526]: [NL] Using the A* guess[0m
The infeasible constraints of the initial Guess
Infeasible Constraints Highlighted in Red
_______________________
Indexes constraints
Obstacles: 0-->4799
Velocity: 4800-->5141
Accel: 5142-->5255
Total number of Constraints: 5336
_______________________
_______________________
Indexes variables
q: 0-->53
n: 54-->1253
d: 1254-->1653
Total number of Variables: 1654
_______________________
[NL] Optimizing now, allowing time = 60ms
[0m[ INFO] [1688981364.392244094]: [NL] Feasible, code=Maxtime_reached[0m
[NL] Feasible Solution found 61 ms 
q[N_]=  9.89 -9.89     0
obj_guess= 46.27698(45.55948 + 0.7174965)
obj_obtained= 46.27698(45.55948 + 0.7174965)
N_effective= 22
t_min= 0
t_max= 8.838835
num control points=1500.651
Time for planner algorithm (RMADER - snlopt.optimize(...)): 137.8672ms
Time_needed (line 241, test_nlopt):60ms
N_effective= 22
t_min= 0
t_max= 8.838835
num control points=1500.651
... logging to /home/cminghan/.ros/log/085b948e-1a38-11ee-bc96-00155df263c5/roslaunch-P-D21000977-10235.log
Checking log directory for disk usage. This may take a while.
Press Ctrl-C to interrupt
Done checking log file disk usage. Usage is <1GB.
]2;/home/cminghan/gcopter_ws/src/GCOPTER/gcopter/launch/nlopt_refresh.launch
[1mstarted roslaunch server http://P-D21000977:41505/[0m

SUMMARY
========

PARAMETERS
 * /rosdistro: noetic
 * /rosversion: 1.16.0
 * /test_nlopt/basis: MINVO

NODES
  /
    test_nlopt (gcopter/test_nlopt)

[1mROS_MASTER_URI=http://localhost:11311[0m
]2;/home/cminghan/gcopter_ws/src/GCOPTER/gcopter/launch/nlopt_refresh.launch http://localhost:11311
[1mprocess[test_nlopt-1]: started with pid [10249][0m
[test_nlopt-1] killing on exit
shutting down processing monitor...
... shutting down processing monitor complete
[1mdone[0m
Iteration Number: 29
-----------------------------------------------------
Basis= MINVO
hulls_curves.size()= 0
==============Initializing a SolverNLopt Object===================
t_min= 0
t_max= 8.83883
=========================
initial_state= 
Pos, Vel, Accel, Jerk= -10  10   0 0 0 0 0 0 0 0 0 0
final_state= 
Pos, Vel, Accel, Jerk=  10 -10   0 0 0 0 0 0 0 0 0 0
Calling optimize
Optimizing now...
==============Generating A Star Guess===================
[NL] Running A* from-10  10   0 to  10 -10   0, allowing time = 60 ms
seed:4203137400
=====================Running Octopus Search===================
[A*] Running...
[A*] Max Runtime was reached
[A*] choosing closest path as solution
-------------Waypoint------------
 9.89
-9.89
    0
Count: 19
Time for planner algorithm (RMADER - octopusSolver_ -> run): 68ms
[0m[ INFO] [1688981365.835964318]: [NL] A* found a feasible solution![0m
[0m[ INFO] [1688981365.837144001]: [NL] Using the A* guess[0m
The infeasible constraints of the initial Guess
Infeasible Constraints Highlighted in Red
_______________________
Indexes constraints
Obstacles: 0-->4799
Velocity: 4800-->5141
Accel: 5142-->5255
Total number of Constraints: 5336
_______________________
_______________________
Indexes variables
q: 0-->53
n: 54-->1253
d: 1254-->1653
Total number of Variables: 1654
_______________________
[NL] Optimizing now, allowing time = 60ms
[0m[ INFO] [1688981365.902804434]: [NL] Feasible, code=Maxtime_reached[0m
[NL] Feasible Solution found 65 ms 
q[N_]=  9.89 -9.89     0
obj_guess= 46.27698(45.55948 + 0.7174965)
[...]
[0m[ INFO] [1688981390.465933703]: [NL] Using the A* guess[0m
The infeasible constraints of the initial Guess
Infeasible Constraints Highlighted in Red
_______________________
Indexes constraints
Obstacles: 0-->4799
Velocity: 4800-->5141
Accel: 5142-->5255
Total number of Constraints: 5336
_______________________
_______________________
Indexes variables
q: 0-->53
n: 54-->1253
d: 1254-->1653
Total number of Variables: 1654
_______________________
[NL] Optimizing now, allowing time = 60ms
[0m[ INFO] [1688981390.542508379]: [NL] Feasible, code=Maxtime_reached[0m
[NL] Feasible Solution found 76 ms 
q[N_]=  9.89 -9.89     0
obj_guess= 46.27698(45.55948 + 0.7174965)
obj_obtained= 46.27698(45.55948 + 0.7174965)
N_effective= 22
t_min= 0
t_max= 8.838835
num control points=1500.651
Time for planner algorithm (RMADER - snlopt.optimize(...)): 154.5077ms
Time_needed (line 241, test_nlopt):76ms
N_effective= 22
t_min= 0
t_max= 8.838835
num control points=1500.651
... logging to /home/cminghan/.ros/log/085b948e-1a38-11ee-bc96-00155df263c5/roslaunch-P-D21000977-10763.log
Checking log directory for disk usage. This may take a while.
Press Ctrl-C to interrupt
Done checking log file disk usage. Usage is <1GB.
]2;/home/cminghan/gcopter_ws/src/GCOPTER/gcopter/launch/nlopt_refresh.launch
[1mstarted roslaunch server http://P-D21000977:44939/[0m

SUMMARY
========

PARAMETERS
 * /rosdistro: noetic
 * /rosversion: 1.16.0
 * /test_nlopt/basis: MINVO

NODES
  /
    test_nlopt (gcopter/test_nlopt)

[1mROS_MASTER_URI=http://localhost:11311[0m
]2;/home/cminghan/gcopter_ws/src/GCOPTER/gcopter/launch/nlopt_refresh.launch http://localhost:11311
[1mprocess[test_nlopt-1]: started with pid [10777][0m
[test_nlopt-1] killing on exit
shutting down processing monitor...
... shutting down processing monitor complete
[1mdone[0m
Iteration Number: 46
-----------------------------------------------------
Basis= MINVO
hulls_curves.size()= 0
==============Initializing a SolverNLopt Object===================
t_min= 0
t_max= 8.83883
=========================
initial_state= 
Pos, Vel, Accel, Jerk= -10  10   0 0 0 0 0 0 0 0 0 0
final_state= 
Pos, Vel, Accel, Jerk=  10 -10   0 0 0 0 0 0 0 0 0 0
Calling optimize
Optimizing now...
==============Generating A Star Guess===================
[NL] Running A* from-10  10   0 to  10 -10   0, allowing time = 60 ms
seed:4203137400
=====================Running Octopus Search===================
[A*] Running...
[A*] Max Runtime was reached
[A*] choosing closest path as solution
-------------Waypoint------------
 9.89
-9.89
    0
Count: 19
Time for planner algorithm (RMADER - octopusSolver_ -> run): 67.7ms
[0m[ INFO] [1688981391.921377862]: [NL] A* found a feasible solution![0m
[0m[ INFO] [1688981391.922451550]: [NL] Using the A* guess[0m
The infeasible constraints of the initial Guess
Infeasible Constraints Highlighted in Red
_______________________
Indexes constraints
Obstacles: 0-->4799
Velocity: 4800-->5141
Accel: 5142-->5255
Total number of Constraints: 5336
_______________________
_______________________
Indexes variables
q: 0-->53
n: 54-->1253
d: 1254-->1653
Total number of Variables: 1654
_______________________
[NL] Optimizing now, allowing time = 60ms
[0m[ INFO] [1688981391.988351179]: [NL] Feasible, code=Maxtime_reached[0m
[NL] Feasible Solution found 65 ms 
q[N_]=  9.89 -9.89     0
obj_guess= 46.27698(45.55948 + 0.7174965)
obj_obtained= 46.27698(45.55948 + 0.7174965)
N_effective= 22
t_min= 0
t_max= 8.838835
num control points=1500.651
Time for planner algorithm (RMADER - snlopt.optimize(...)): 142.0711ms
Time_needed (line 241, test_nlopt):65ms
N_effective= 22
t_min= 0
t_max= 8.838835
num control points=1500.651
... logging to /home/cminghan/.ros/log/085b948e-1a38-11ee-bc96-00155df263c5/roslaunch-P-D21000977-10794.log
Checking log directory for disk usage. This may take a while.
Press Ctrl-C to interrupt
Done checking log file disk usage. Usage is <1GB.
]2;/home/cminghan/gcopter_ws/src/GCOPTER/gcopter/launch/nlopt_refresh.launch
[1mstarted roslaunch server http://P-D21000977:42983/[0m

SUMMARY
========

PARAMETERS
 * /rosdistro: noetic
 * /rosversion: 1.16.0
 * /test_nlopt/basis: MINVO

NODES
  /
    test_nlopt (gcopter/test_nlopt)

[1mROS_MASTER_URI=http://localhost:11311[0m
]2;/home/cminghan/gcopter_ws/src/GCOPTER/gcopter/launch/nlopt_refresh.launch http://localhost:11311
[1mprocess[test_nlopt-1]: started with pid [10808][0m
[test_nlopt-1] killing on exit
shutting down processing monitor...
... shutting down processing monitor complete
[1mdone[0m
Iteration Number: 47
-----------------------------------------------------
Basis= MINVO
hulls_curves.size()= 0
==============Initializing a SolverNLopt Object===================
t_min= 0
t_max= 8.83883
=========================
initial_state= 
Pos, Vel, Accel, Jerk= -10  10   0 0 0 0 0 0 0 0 0 0
final_state= 
Pos, Vel, Accel, Jerk=  10 -10   0 0 0 0 0 0 0 0 0 0
Calling optimize
Optimizing now...
==============Generating A Star Guess===================
[NL] Running A* from-10  10   0 to  10 -10   0, allowing time = 60 ms
seed:4203137400
=====================Running Octopus Search===================
[A*] Running...
[A*] Max Runtime was reached
[A*] choosing closest path as solution
-------------Waypoint------------
 9.89
-9.89
    0
Count: 19
Time for planner algorithm (RMADER - octopusSolver_ -> run): 68ms
[0m[ INFO] [1688981393.349776159]: [NL] A* found a feasible solution![0m
[0m[ INFO] [1688981393.351112361]: [NL] Using the A* guess[0m
The infeasible constraints of the initial Guess
Infeasible Constraints Highlighted in Red
_______________________
Indexes constraints
Obstacles: 0-->4799
Velocity: 4800-->5141
Accel: 5142-->5255
Total number of Constraints: 5336
_______________________
_______________________
Indexes variables
q: 0-->53
n: 54-->1253
d: 1254-->1653
Total number of Variables: 1654
_______________________
[NL] Optimizing now, allowing time = 60ms
[0m[ INFO] [1688981393.417230078]: [NL] Feasible, code=Maxtime_reached[0m
[NL] Feasible Solution found 65 ms 
q[N_]=  9.89 -9.89     0
obj_guess= 46.27698(45.55948 + 0.7174965)
obj_obtained= 46.27698(45.55948 + 0.7174965)
N_effective= 22
t_min= 0
t_max= 8.838835
num control points=1500.651
Time for planner algorithm (RMADER - snlopt.optimize(...)): 144.5751ms
Time_needed (line 241, test_nlopt):65ms
N_effective= 22
t_min= 0
t_max= 8.838835
num control points=1500.651
... logging to /home/cminghan/.ros/log/085b948e-1a38-11ee-bc96-00155df263c5/roslaunch-P-D21000977-10825.log
Checking log directory for disk usage. This may take a while.
Press Ctrl-C to interrupt
Done checking log file disk usage. Usage is <1GB.
]2;/home/cminghan/gcopter_ws/src/GCOPTER/gcopter/launch/nlopt_refresh.launch
[1mstarted roslaunch server http://P-D21000977:34117/[0m

SUMMARY
========

PARAMETERS
 * /rosdistro: noetic
 * /rosversion: 1.16.0
 * /test_nlopt/basis: MINVO

NODES
  /
    test_nlopt (gcopter/test_nlopt)

[1mROS_MASTER_URI=http://localhost:11311[0m
]2;/home/cminghan/gcopter_ws/src/GCOPTER/gcopter/launch/nlopt_refresh.launch http://localhost:11311
[1mprocess[test_nlopt-1]: started with pid [10839][0m
[test_nlopt-1] killing on exit
shutting down processing monitor...
... shutting down processing monitor complete
[1mdone[0m
Iteration Number: 48
-----------------------------------------------------
Basis= MINVO
hulls_curves.size()= 0
==============Initializing a SolverNLopt Object===================
t_min= 0
t_max= 8.83883
=========================
initial_state= 
Pos, Vel, Accel, Jerk= -10  10   0 0 0 0 0 0 0 0 0 0
final_state= 
Pos, Vel, Accel, Jerk=  10 -10   0 0 0 0 0 0 0 0 0 0
Calling optimize
Optimizing now...
==============Generating A Star Guess===================
[NL] Running A* from-10  10   0 to  10 -10   0, allowing time = 60 ms
seed:4203137400
=====================Running Octopus Search===================
[A*] Running...
[A*] Max Runtime was reached
[A*] choosing closest path as solution
-------------Waypoint------------
 9.89
-9.89
    0
Count: 19
Time for planner algorithm (RMADER - octopusSolver_ -> run): 67.2ms
[0m[ INFO] [1688981394.866771233]: [NL] A* found a feasible solution![0m
[0m[ INFO] [1688981394.868606865]: [NL] Using the A* guess[0m
The infeasible constraints of the initial Guess
Infeasible Constraints Highlighted in Red
_______________________
Indexes constraints
Obstacles: 0-->4799
Velocity: 4800-->5141
Accel: 5142-->5255
Total number of Constraints: 5336
_______________________
_______________________
Indexes variables
q: 0-->53
n: 54-->1253
d: 1254-->1653
Total number of Variables: 1654
_______________________
[NL] Optimizing now, allowing time = 60ms
[0m[ INFO] [1688981394.931100230]: [NL] Feasible, code=Maxtime_reached[0m
[NL] Feasible Solution found 62 ms 
q[N_]=  9.89 -9.89     0
obj_guess= 46.27698(45.55948 + 0.7174965)
obj_obtained= 46.27698(45.55948 + 0.7174965)
N_effective= 22
t_min= 0
t_max= 8.838835
num control points=1500.651
Time for planner algorithm (RMADER - snlopt.optimize(...)): 138.0376ms
Time_needed (line 241, test_nlopt):62ms
N_effective= 22
t_min= 0
t_max= 8.838835
num control points=1500.651
... logging to /home/cminghan/.ros/log/085b948e-1a38-11ee-bc96-00155df263c5/roslaunch-P-D21000977-10856.log
Checking log directory for disk usage. This may take a while.
Press Ctrl-C to interrupt
Done checking log file disk usage. Usage is <1GB.
]2;/home/cminghan/gcopter_ws/src/GCOPTER/gcopter/launch/nlopt_refresh.launch
[1mstarted roslaunch server http://P-D21000977:46543/[0m

SUMMARY
========

PARAMETERS
 * /rosdistro: noetic
 * /rosversion: 1.16.0
 * /test_nlopt/basis: MINVO

NODES
  /
    test_nlopt (gcopter/test_nlopt)

[1mROS_MASTER_URI=http://localhost:11311[0m
]2;/home/cminghan/gcopter_ws/src/GCOPTER/gcopter/launch/nlopt_refresh.launch http://localhost:11311
[1mprocess[test_nlopt-1]: started with pid [10870][0m
[test_nlopt-1] killing on exit
shutting down processing monitor...
... shutting down processing monitor complete
[1mdone[0m
Iteration Number: 49
-----------------------------------------------------
Basis= MINVO
hulls_curves.size()= 0
==============Initializing a SolverNLopt Object===================
t_min= 0
t_max= 8.83883
=========================
initial_state= 
Pos, Vel, Accel, Jerk= -10  10   0 0 0 0 0 0 0 0 0 0
final_state= 
Pos, Vel, Accel, Jerk=  10 -10   0 0 0 0 0 0 0 0 0 0
Calling optimize
Optimizing now...
==============Generating A Star Guess===================
[NL] Running A* from-10  10   0 to  10 -10   0, allowing time = 60 ms
seed:4203137400
=====================Running Octopus Search===================
[A*] Running...
[A*] Max Runtime was reached
[A*] choosing closest path as solution
-------------Waypoint------------
 9.89
-9.89
    0
Count: 19
Time for planner algorithm (RMADER - octopusSolver_ -> run): 67.5ms
[0m[ INFO] [1688981396.384940988]: [NL] A* found a feasible solution![0m
[0m[ INFO] [1688981396.385944911]: [NL] Using the A* guess[0m
The infeasible constraints of the initial Guess
Infeasible Constraints Highlighted in Red
_______________________
Indexes constraints
Obstacles: 0-->4799
Velocity: 4800-->5141
Accel: 5142-->5255
Total number of Constraints: 5336
_______________________
_______________________
Indexes variables
q: 0-->53
n: 54-->1253
d: 1254-->1653
Total number of Variables: 1654
_______________________
[NL] Optimizing now, allowing time = 60ms
[0m[ INFO] [1688981396.447110474]: [NL] Feasible, code=Maxtime_reached[0m
[NL] Feasible Solution found 60 ms 
q[N_]=  9.89 -9.89     0
obj_guess= 46.27698(45.55948 + 0.7174965)
obj_obtained= 46.27698(45.55948 + 0.7174965)
N_effective= 22
t_min= 0
t_max= 8.838835
num control points=1500.651
Time for planner algorithm (RMADER - snlopt.optimize(...)): 136.3038ms
Time_needed (line 241, test_nlopt):60ms
N_effective= 22
t_min= 0
t_max= 8.838835
num control points=1500.651
... logging to /home/cminghan/.ros/log/085b948e-1a38-11ee-bc96-00155df263c5/roslaunch-P-D21000977-10887.log
Checking log directory for disk usage. This may take a while.
Press Ctrl-C to interrupt
Done checking log file disk usage. Usage is <1GB.
]2;/home/cminghan/gcopter_ws/src/GCOPTER/gcopter/launch/nlopt_refresh.launch
[1mstarted roslaunch server http://P-D21000977:34523/[0m

SUMMARY
========

PARAMETERS
 * /rosdistro: noetic
 * /rosversion: 1.16.0
 * /test_nlopt/basis: MINVO

NODES
  /
    test_nlopt (gcopter/test_nlopt)

[1mROS_MASTER_URI=http://localhost:11311[0m
]2;/home/cminghan/gcopter_ws/src/GCOPTER/gcopter/launch/nlopt_refresh.launch http://localhost:11311
[1mprocess[test_nlopt-1]: started with pid [10908][0m
[test_nlopt-1] killing on exit
shutting down processing monitor...
... shutting down processing monitor complete
[1mdone[0m
Iteration Number: 50
-----------------------------------------------------
Basis= MINVO
hulls_curves.size()= 0
==============Initializing a SolverNLopt Object===================
t_min= 0
t_max= 8.83883
=========================
initial_state= 
Pos, Vel, Accel, Jerk= -10  10   0 0 0 0 0 0 0 0 0 0
final_state= 
Pos, Vel, Accel, Jerk=  10 -10   0 0 0 0 0 0 0 0 0 0
Calling optimize
Optimizing now...
==============Generating A Star Guess===================
[NL] Running A* from-10  10   0 to  10 -10   0, allowing time = 60 ms
seed:4203137400
=====================Running Octopus Search===================
[A*] Running...
[A*] Max Runtime was reached
[A*] choosing closest path as solution
-------------Waypoint------------
 9.89
-9.89
    0
Count: 19
Time for planner algorithm (RMADER - octopusSolver_ -> run): 67.1ms
[0m[ INFO] [1688981397.906935103]: [NL] A* found a feasible solution![0m
[0m[ INFO] [1688981397.907931776]: [NL] Using the A* guess[0m
The infeasible constraints of the initial Guess
Infeasible Constraints Highlighted in Red
_______________________
Indexes constraints
Obstacles: 0-->4799
Velocity: 4800-->5141
Accel: 5142-->5255
Total number of Constraints: 5336
_______________________
_______________________
Indexes variables
q: 0-->53
n: 54-->1253
d: 1254-->1653
Total number of Variables: 1654
_______________________
[NL] Optimizing now, allowing time = 60ms
[0m[ INFO] [1688981397.968848315]: [NL] Feasible, code=Maxtime_reached[0m
[NL] Feasible Solution found 60 ms 
q[N_]=  9.89 -9.89     0
obj_guess= 46.27698(45.55948 + 0.7174965)
obj_obtained= 46.27698(45.55948 + 0.7174965)
N_effective= 22
t_min= 0
t_max= 8.838835
num control points=1500.651
Time for planner algorithm (RMADER - snlopt.optimize(...)): 136.5277ms
Time_needed (line 241, test_nlopt):60ms
N_effective= 22
t_min= 0
t_max= 8.838835
num control points=1500.651
... logging to /home/cminghan/.ros/log/085b948e-1a38-11ee-bc96-00155df263c5/roslaunch-P-D21000977-10931.log
Checking log directory for disk usage. This may take a while.
Press Ctrl-C to interrupt
Done checking log file disk usage. Usage is <1GB.
]2;/home/cminghan/gcopter_ws/src/GCOPTER/gcopter/launch/nlopt_refresh.launch
[1mstarted roslaunch server http://P-D21000977:45731/[0m

SUMMARY
========

PARAMETERS
 * /rosdistro: noetic
 * /rosversion: 1.16.0
 * /test_nlopt/basis: MINVO

NODES
  /
    test_nlopt (gcopter/test_nlopt)

[1mROS_MASTER_URI=http://localhost:11311[0m
]2;/home/cminghan/gcopter_ws/src/GCOPTER/gcopter/launch/nlopt_refresh.launch http://localhost:11311
[1mprocess[test_nlopt-1]: started with pid [10945][0m
[test_nlopt-1] killing on exit
shutting down processing monitor...
... shutting down processing monitor complete
[1mdone[0m
Iteration Number: 51
-----------------------------------------------------
Basis= MINVO
hulls_curves.size()= 0
==============Initializing a SolverNLopt Object===================
t_min= 0
t_max= 8.83883
=========================
initial_state= 
Pos, Vel, Accel, Jerk= -10  10   0 0 0 0 0 0 0 0 0 0
final_state= 
Pos, Vel, Accel, Jerk=  10 -10   0 0 0 0 0 0 0 0 0 0
Calling optimize
Optimizing now...
==============Generating A Star Guess===================
[NL] Running A* from-10  10   0 to  10 -10   0, allowing time = 60 ms
seed:4203137400
=====================Running Octopus Search===================
[A*] Running...
[A*] Max Runtime was reached
[A*] choosing closest path as solution
-------------Waypoint------------
 9.89
-9.89
    0
Count: 19
Time for planner algorithm (RMADER - octopusSolver_ -> run): 67.3ms
[0m[ INFO] [1688981399.552758352]: [NL] A* found a feasible solution![0m
[0m[ INFO] [1688981399.553801781]: [NL] Using the A* guess[0m
The infeasible constraints of the initial Guess
Infeasible Constraints Highlighted in Red
_______________________
Indexes constraints
Obstacles: 0-->4799
Velocity: 4800-->5141
Accel: 5142-->5255
Total number of Constraints: 5336
_______________________
_______________________
Indexes variables
q: 0-->53
n: 54-->1253
d: 1254-->1653
Total number of Variables: 1654
_______________________
[NL] Optimizing now, allowing time = 60ms
[0m[ INFO] [1688981399.618453235]: [NL] Feasible, code=Maxtime_reached[0m
[NL] Feasible Solution found 64 ms 
q[N_]=  9.89 -9.89     0
obj_guess= 46.27698(45.55948 + 0.7174965)
obj_obtained= 46.27698(45.55948 + 0.7174965)
N_effective= 22
t_min= 0
t_max= 8.838835
num control points=1500.651
Time for planner algorithm (RMADER - snlopt.optimize(...)): 140.276ms
Time_needed (line 241, test_nlopt):64ms
N_effective= 22
t_min= 0
t_max= 8.838835
num control points=1500.651
... logging to /home/cminghan/.ros/log/085b948e-1a38-11ee-bc96-00155df263c5/roslaunch-P-D21000977-10962.log
Checking log directory for disk usage. This may take a while.
Press Ctrl-C to interrupt
Done checking log file disk usage. Usage is <1GB.
]2;/home/cminghan/gcopter_ws/src/GCOPTER/gcopter/launch/nlopt_refresh.launch
[1mstarted roslaunch server http://P-D21000977:45461/[0m

SUMMARY
========

PARAMETERS
 * /rosdistro: noetic
 * /rosversion: 1.16.0
 * /test_nlopt/basis: MINVO

NODES
  /
    test_nlopt (gcopter/test_nlopt)

[1mROS_MASTER_URI=http://localhost:11311[0m
]2;/home/cminghan/gcopter_ws/src/GCOPTER/gcopter/launch/nlopt_refresh.launch http://localhost:11311
[1mprocess[test_nlopt-1]: started with pid [10976][0m
[test_nlopt-1] killing on exit
shutting down processing monitor...
... shutting down processing monitor complete
[1mdone[0m
killing:
 * /mockamap_node
 * /rosout
 * /rostopic_18396_1688717394306
killed
Finishing at : Mon Jul 10 17:30:00 +08 2023
[0m[ INFO] [1688981322.355477841]: finish: infill 0.001542%[0m
... logging to /home/cminghan/.ros/log/085b948e-1a38-11ee-bc96-00155df263c5/roslaunch-P-D21000977-9368.log
Checking log directory for disk usage. This may take a while.
Press Ctrl-C to interrupt
Done checking log file disk usage. Usage is <1GB.
]2;/home/cminghan/gcopter_ws/src/GCOPTER/gcopter/launch/test_nlopt.launch
[1mstarted roslaunch server http://P-D21000977:43437/[0m

SUMMARY
========

PARAMETERS
 * /mockamap_node/obstacle_number: 20
 * /mockamap_node/resolution: 0.1
 * /mockamap_node/seed: 0
 * /mockamap_node/type: 2
 * /mockamap_node/width_max: 1.0
 * /mockamap_node/width_min: 1.0
 * /mockamap_node/x_length: 50
 * /mockamap_node/y_length: 50
 * /mockamap_node/z_length: 10
 * /rosdistro: noetic
 * /rosversion: 1.16.0
 * /test_nlopt/basis: MINVO

NODES
  /
    mockamap_node (mockamap/mockamap_node)
    test_nlopt (gcopter/test_nlopt)

[1mROS_MASTER_URI=http://localhost:11311[0m
]2;/home/cminghan/gcopter_ws/src/GCOPTER/gcopter/launch/test_nlopt.launch http://localhost:11311
[1mprocess[test_nlopt-1]: started with pid [9383][0m
[1mprocess[mockamap_node-2]: started with pid [9384][0m
[1m[test_nlopt-1] process has finished cleanly
log file: /home/cminghan/.ros/log/085b948e-1a38-11ee-bc96-00155df263c5/test_nlopt-1*.log[0m
[1m[mockamap_node-2] process has finished cleanly
log file: /home/cminghan/.ros/log/085b948e-1a38-11ee-bc96-00155df263c5/mockamap_node-2*.log[0m
all processes on machine have died, roslaunch will exit
shutting down processing monitor...
... shutting down processing monitor complete
[1mdone[0m
