Starting at : Mon Jul 10 16:17:33 +08 2023
-----------------------------------------------------
Setting workspace and sourcing develspace
workspace set up
Running simulation for rmader using nlopt
-----------------------------------------------------
Iteration Number: 0
-----------------------------------------------------
Basis= MINVO
hulls_curves.size()= 0
==============Initializing a SolverNLopt Object===================
t_min= 0
t_max= 8.83883
=========================
initial_state= 
Pos, Vel, Accel, Jerk= -10  10   0 0 0 0 0 0 0 0 0 0
final_state= 
Pos, Vel, Accel, Jerk=  10 -10   0 0 0 0 0 0 0 0 0 0
Calling optimize
Optimizing now...
==============Generating A Star Guess===================
[NL] Running A* from-10  10   0 to  10 -10   0, allowing time = 50 ms
seed:4203137400
=====================Running Octopus Search===================
[A*] Running...
[A*] Max Runtime was reached
[A*] choosing closest path as solution
-------------Waypoint------------
 9.89
-9.89
    0
Count: 19
Time for planner algorithm (RMADER - octopusSolver_ -> run): 57.5ms
[0m[ INFO] [1688977053.881457020]: [NL] A* found a feasible solution![0m
[0m[ INFO] [1688977053.882585811]: [NL] Using the A* guess[0m
The infeasible constraints of the initial Guess
Infeasible Constraints Highlighted in Red
_______________________
Indexes constraints
Obstacles: 0-->4799
Velocity: 4800-->5141
Accel: 5142-->5255
Total number of Constraints: 5336
_______________________
_______________________
Indexes variables
q: 0-->53
n: 54-->1253
d: 1254-->1653
Total number of Variables: 1654
_______________________
[NL] Optimizing now, allowing time = 50ms
[0m[ INFO] [1688977053.938523239]: [NL] Feasible, code=Maxtime_reached[0m
[NL] Feasible Solution found 55 ms 
q[N_]=  9.89 -9.89     0
obj_guess= 46.27698(45.55948 + 0.7174965)
obj_obtained= 46.27698(45.55948 + 0.7174965)
N_effective= 22
t_min= 0
t_max= 8.838835
num control points=100.4413
Time for planner algorithm (RMADER - snlopt.optimize(...)): 120.9952ms
Time_needed (line 241, test_nlopt):55ms
N_effective= 22
t_min= 0
t_max= 8.838835
num control points=100.4413
Iteration Number: 1
-----------------------------------------------------
Basis= MINVO
hulls_curves.size()= 0
==============Initializing a SolverNLopt Object===================
t_min= 0
t_max= 8.83883
=========================
initial_state= 
Pos, Vel, Accel, Jerk= -10  10   0 0 0 0 0 0 0 0 0 0
final_state= 
Pos, Vel, Accel, Jerk=  10 -10   0 0 0 0 0 0 0 0 0 0
Calling optimize
Optimizing now...
==============Generating A Star Guess===================
[NL] Running A* from-10  10   0 to  10 -10   0, allowing time = 50 ms
seed:4203137400
=====================Running Octopus Search===================
[A*] Running...
[A*] Max Runtime was reached
[A*] choosing closest path as solution
-------------Waypoint------------
 9.89
-9.89
    0
Count: 19
Time for planner algorithm (RMADER - octopusSolver_ -> run): 58.9ms
[0m[ INFO] [1688977058.884459771]: [NL] A* found a feasible solution![0m
[0m[ INFO] [1688977058.886097977]: [NL] Using the A* guess[0m
The infeasible constraints of the initial Guess
Infeasible Constraints Highlighted in Red
_______________________
Indexes constraints
Obstacles: 0-->4799
Velocity: 4800-->5141
Accel: 5142-->5255
Total number of Constraints: 5336
_______________________
_______________________
Indexes variables
q: 0-->53
n: 54-->1253
d: 1254-->1653
Total number of Variables: 1654
_______________________
[NL] Optimizing now, allowing time = 50ms
[0m[ INFO] [1688977058.941340143]: [NL] Feasible, code=Maxtime_reached[0m
[NL] Feasible Solution found 54 ms 
q[N_]=  9.89 -9.89     0
obj_guess= 46.27698(45.55948 + 0.7174965)
obj_obtained= 46.27698(45.55948 + 0.7174965)
N_effective= 22
t_min= 0
t_max= 8.838835
num control points=100.4413
Time for planner algorithm (RMADER - snlopt.optimize(...)): 123.5086ms
Time_needed (line 241, test_nlopt):54ms
N_effective= 22
t_min= 0
t_max= 8.838835
num control points=100.4413
... logging to /home/cminghan/.ros/log/085b948e-1a38-11ee-bc96-00155df263c5/roslaunch-P-D21000977-25194.log
Checking log directory for disk usage. This may take a while.
Press Ctrl-C to interrupt
Done checking log file disk usage. Usage is <1GB.
]2;/home/cminghan/gcopter_ws/src/GCOPTER/gcopter/launch/nlopt_refresh.launch
[1mstarted roslaunch server http://P-D21000977:37103/[0m

SUMMARY
========

PARAMETERS
 * /rosdistro: noetic
 * /rosversion: 1.16.0
 * /test_nlopt/basis: MINVO

NODES
  /
    test_nlopt (gcopter/test_nlopt)

[1mROS_MASTER_URI=http://localhost:11311[0m
]2;/home/cminghan/gcopter_ws/src/GCOPTER/gcopter/launch/nlopt_refresh.launch http://localhost:11311
[1mprocess[test_nlopt-1]: started with pid [25211][0m
[test_nlopt-1] killing on exit
shutting down processing monitor...
... shutting down processing monitor complete
[1mdone[0m
Iteration Number: 2
-----------------------------------------------------
Basis= MINVO
hulls_curves.size()= 0
==============Initializing a SolverNLopt Object===================
t_min= 0
t_max= 8.83883
=========================
initial_state= 
Pos, Vel, Accel, Jerk= -10  10   0 0 0 0 0 0 0 0 0 0
final_state= 
Pos, Vel, Accel, Jerk=  10 -10   0 0 0 0 0 0 0 0 0 0
Calling optimize
Optimizing now...
==============Generating A Star Guess===================
[NL] Running A* from-10  10   0 to  10 -10   0, allowing time = 50 ms
seed:4203137400
=====================Running Octopus Search===================
[A*] Running...
[A*] Max Runtime was reached
[A*] choosing closest path as solution
-------------Waypoint------------
 9.89
-9.89
    0
Count: 19
Time for planner algorithm (RMADER - octopusSolver_ -> run): 59.7ms
[0m[ INFO] [1688977061.335913170]: [NL] A* found a feasible solution![0m
[0m[ INFO] [1688977061.337066281]: [NL] Using the A* guess[0m
The infeasible constraints of the initial Guess
Infeasible Constraints Highlighted in Red
_______________________
Indexes constraints
Obstacles: 0-->4799
Velocity: 4800-->5141
Accel: 5142-->5255
Total number of Constraints: 5336
_______________________
_______________________
Indexes variables
q: 0-->53
n: 54-->1253
d: 1254-->1653
Total number of Variables: 1654
_______________________
[NL] Optimizing now, allowing time = 50ms
[0m[ INFO] [1688977061.390725853]: [NL] Feasible, code=Maxtime_reached[0m
[NL] Feasible Solution found 53 ms 
q[N_]=  9.89 -9.89     0
obj_guess= 46.27698(45.55948 + 0.7174965)
obj_obtained= 46.27698(45.55948 + 0.7174965)
N_effective= 22
t_min= 0
t_max= 8.838835
num control points=100.4413
Time for planner algorithm (RMADER - snlopt.optimize(...)): 121.55ms
Time_needed (line 241, test_nlopt):53ms
N_effective= 22
t_min= 0
t_max= 8.838835
num control points=100.4413
... logging to /home/cminghan/.ros/log/085b948e-1a38-11ee-bc96-00155df263c5/roslaunch-P-D21000977-25228.log
Checking log directory for disk usage. This may take a while.
Press Ctrl-C to interrupt
Done checking log file disk usage. Usage is <1GB.
]2;/home/cminghan/gcopter_ws/src/GCOPTER/gcopter/launch/nlopt_refresh.launch
[1mstarted roslaunch server http://P-D21000977:44663/[0m

SUMMARY
========

PARAMETERS
 * /rosdistro: noetic
 * /rosversion: 1.16.0
 * /test_nlopt/basis: MINVO

NODES
  /
    test_nlopt (gcopter/test_nlopt)

[1mROS_MASTER_URI=http://localhost:11311[0m
]2;/home/cminghan/gcopter_ws/src/GCOPTER/gcopter/launch/nlopt_refresh.launch http://localhost:11311
[1mprocess[test_nlopt-1]: started with pid [25242][0m
[test_nlopt-1] killing on exit
shutting down processing monitor...
... shutting down processing monitor complete
[1mdone[0m
Iteration Number: 3
-----------------------------------------------------
Basis= MINVO
hulls_curves.size()= 0
==============Initializing a SolverNLopt Object===================
t_min= 0
t_max= 8.83883
=========================
initial_state= 
Pos, Vel, Accel, Jerk= -10  10   0 0 0 0 0 0 0 0 0 0
final_state= 
Pos, Vel, Accel, Jerk=  10 -10   0 0 0 0 0 0 0 0 0 0
Calling optimize
Optimizing now...
==============Generating A Star Guess===================
[NL] Running A* from-10  10   0 to  10 -10   0, allowing time = 50 ms
seed:4203137400
=====================Running Octopus Search===================
[A*] Running...
[A*] Max Runtime was reached
[A*] choosing closest path as solution
-------------Waypoint------------
 9.89
-9.89
    0
Count: 19
Time for planner algorithm (RMADER - octopusSolver_ -> run): 58.5ms
[0m[ INFO] [1688977063.847103959]: [NL] A* found a feasible solution![0m
[0m[ INFO] [1688977063.848262244]: [NL] Using the A* guess[0m
The infeasible constraints of the initial Guess
Infeasible Constraints Highlighted in Red
_______________________
Indexes constraints
Obstacles: 0-->4799
Velocity: 4800-->5141
Accel: 5142-->5255
Total number of Constraints: 5336
_______________________
_______________________
Indexes variables
q: 0-->53
n: 54-->1253
d: 1254-->1653
Total number of Variables: 1654
_______________________
[NL] Optimizing now, allowing time = 50ms
[0m[ INFO] [1688977063.902088378]: [NL] Feasible, code=Maxtime_reached[0m
[NL] Feasible Solution found 53 ms 
q[N_]=  9.89 -9.89     0
obj_guess= 46.27698(45.55948 + 0.7174965)
obj_obtained= 46.27698(45.55948 + 0.7174965)
N_effective= 22
t_min= 0
t_max= 8.838835
num control points=100.4413
Time for planner algorithm (RMADER - snlopt.optimize(...)): 120.3743ms
Time_needed (line 241, test_nlopt):53ms
N_effective= 22
t_min= 0
t_max= 8.838835
num control points=100.4413
... logging to /home/cminghan/.ros/log/085b948e-1a38-11ee-bc96-00155df263c5/roslaunch-P-D21000977-25259.log
Checking log directory for disk usage. This may take a while.
Press Ctrl-C to interrupt
Done checking log file disk usage. Usage is <1GB.
]2;/home/cminghan/gcopter_ws/src/GCOPTER/gcopter/launch/nlopt_refresh.launch
[1mstarted roslaunch server http://P-D21000977:42837/[0m

SUMMARY
========

PARAMETERS
 * /rosdistro: noetic
 * /rosversion: 1.16.0
 * /test_nlopt/basis: MINVO

NODES
  /
    test_nlopt (gcopter/test_nlopt)

[1mROS_MASTER_URI=http://localhost:11311[0m
]2;/home/cminghan/gcopter_ws/src/GCOPTER/gcopter/launch/nlopt_refresh.launch http://localhost:11311
[1mprocess[test_nlopt-1]: started with pid [25274][0m
[test_nlopt-1] killing on exit
shutting down processing monitor...
... shutting down processing monitor complete
[1mdone[0m
Iteration Number: 4
-----------------------------------------------------
Basis= MINVO
hulls_curves.size()= 0
==============Initializing a SolverNLopt Object===================
t_min= 0
t_max= 8.83883
=========================
initial_state= 
Pos, Vel, Accel, Jerk= -10  10   0 0 0 0 0 0 0 0 0 0
final_state= 
Pos, Vel, Accel, Jerk=  10 -10   0 0 0 0 0 0 0 0 0 0
Calling optimize
Optimizing now...
==============Generating A Star Guess===================
[NL] Running A* from-10  10   0 to  10 -10   0, allowing time = 50 ms
seed:4203137400
=====================Running Octopus Search===================
[A*] Running...
[A*] Max Runtime was reached
[A*] choosing closest path as solution
-------------Waypoint------------
 9.89
-9.89
    0
Count: 19
Time for planner algorithm (RMADER - octopusSolver_ -> run): 57.7ms
[0m[ INFO] [1688977066.389231624]: [NL] A* found a feasible solution![0m
[0m[ INFO] [1688977066.390567760]: [NL] Using the A* guess[0m
The infeasible constraints of the initial Guess
Infeasible Constraints Highlighted in Red
_______________________
Indexes constraints
Obstacles: 0-->4799
Velocity: 4800-->5141
Accel: 5142-->5255
Total number of Constraints: 5336
_______________________
_______________________
Indexes variables
q: 0-->53
n: 54-->1253
d: 1254-->1653
Total number of Variables: 1654
_______________________
[NL] Optimizing now, allowing time = 50ms
[0m[ INFO] [1688977066.446321015]: [NL] Feasible, code=Maxtime_reached[0m
[NL] Feasible Solution found 55 ms 
q[N_]=  9.89 -9.89     0
obj_guess= 46.27698(45.55948 + 0.7174965)
obj_obtained= 46.27698(45.55948 + 0.7174965)
N_effective= 22
t_min= 0
t_max= 8.838835
num control points=100.4413
Time for planner algorithm (RMADER - snlopt.optimize(...)): 124.6315ms
Time_needed (line 241, test_nlopt):55ms
N_effective= 22
t_min= 0
t_max= 8.838835
num control points=100.4413
... logging to /home/cminghan/.ros/log/085b948e-1a38-11ee-bc96-00155df263c5/roslaunch-P-D21000977-25291.log
Checking log directory for disk usage. This may take a while.
Press Ctrl-C to interrupt
Done checking log file disk usage. Usage is <1GB.
]2;/home/cminghan/gcopter_ws/src/GCOPTER/gcopter/launch/nlopt_refresh.launch
[1mstarted roslaunch server http://P-D21000977:33879/[0m

SUMMARY
========

PARAMETERS
 * /rosdistro: noetic
 * /rosversion: 1.16.0
 * /test_nlopt/basis: MINVO

NODES
  /
    test_nlopt (gcopter/test_nlopt)

[1mROS_MASTER_URI=http://localhost:11311[0m
]2;/home/cminghan/gcopter_ws/src/GCOPTER/gcopter/launch/nlopt_refresh.launch http://localhost:11311
[1mprocess[test_nlopt-1]: started with pid [25305][0m
[test_nlopt-1] killing on exit
shutting down processing monitor...
... shutting down processing monitor complete
[1mdone[0m
Iteration Number: 5
-----------------------------------------------------
Basis= MINVO
hulls_curves.size()= 0
==============Initializing a SolverNLopt Object===================
t_min= 0
t_max= 8.83883
=========================
initial_state= 
Pos, Vel, Accel, Jerk= -10  10   0 0 0 0 0 0 0 0 0 0
final_state= 
Pos, Vel, Accel, Jerk=  10 -10   0 0 0 0 0 0 0 0 0 0
Calling optimize
Optimizing now...
==============Generating A Star Guess===================
[NL] Running A* from-10  10   0 to  10 -10   0, allowing time = 50 ms
seed:4203137400
=====================Running Octopus Search===================
[A*] Running...
[A*] Max Runtime was reached
[A*] choosing closest path as solution
-------------Waypoint------------
 9.89
-9.89
    0
Count: 19
Time for planner algorithm (RMADER - octopusSolver_ -> run): 58.8ms
[0m[ INFO] [1688977068.905003697]: [NL] A* found a feasible solution![0m
[0m[ INFO] [1688977068.906332476]: [NL] Using the A* guess[0m
The infeasible constraints of the initial Guess
Infeasible Constraints Highlighted in Red
_______________________
Indexes constraints
Obstacles: 0-->4799
Velocity: 4800-->5141
Accel: 5142-->5255
Total number of Constraints: 5336
_______________________
_______________________
Indexes variables
q: 0-->53
n: 54-->1253
d: 1254-->1653
Total number of Variables: 1654
_______________________
[NL] Optimizing now, allowing time = 50ms
[0m[ INFO] [1688977068.964662146]: [NL] Feasible, code=Maxtime_reached[0m
[NL] Feasible Solution found 58 ms 
q[N_]=  9.89 -9.89     0
obj_guess= 46.27698(45.55948 + 0.7174965)
obj_obtained= 46.27698(45.55948 + 0.7174965)
N_effective= 22
t_min= 0
t_max= 8.838835
num control points=100.4413
Time for planner algorithm (RMADER - snlopt.optimize(...)): 126.9989ms
Time_needed (line 241, test_nlopt):57ms
N_effective= 22
t_min= 0
t_max= 8.838835
num control points=100.4413
... logging to /home/cminghan/.ros/log/085b948e-1a38-11ee-bc96-00155df263c5/roslaunch-P-D21000977-25322.log
Checking log directory for disk usage. This may take a while.
Press Ctrl-C to interrupt
Done checking log file disk usage. Usage is <1GB.
]2;/home/cminghan/gcopter_ws/src/GCOPTER/gcopter/launch/nlopt_refresh.launch
[1mstarted roslaunch server http://P-D21000977:46443/[0m

SUMMARY
========

PARAMETERS
 * /rosdistro: noetic
 * /rosversion: 1.16.0
 * /test_nlopt/basis: MINVO

NODES
  /
    test_nlopt (gcopter/test_nlopt)

[1mROS_MASTER_URI=http://localhost:11311[0m
]2;/home/cminghan/gcopter_ws/src/GCOPTER/gcopter/launch/nlopt_refresh.launch http://localhost:11311
[1mprocess[test_nlopt-1]: started with pid [25336][0m
[test_nlopt-1] killing on exit
shutting down processing monitor...
... shutting down processing monitor complete
[1mdone[0m
Iteration Number: 6
-----------------------------------------------------
Basis= MINVO
hulls_curves.size()= 0
==============Initializing a SolverNLopt Object===================
t_min= 0
t_max= 8.83883
=========================
initial_state= 
Pos, Vel, Accel, Jerk= -10  10   0 0 0 0 0 0 0 0 0 0
final_state= 
Pos, Vel, Accel, Jerk=  10 -10   0 0 0 0 0 0 0 0 0 0
Calling optimize
Optimizing now...
==============Generating A Star Guess===================
[NL] Running A* from-10  10   0 to  10 -10   0, allowing time = 50 ms
seed:4203137400
=====================Running Octopus Search===================
[A*] Running...
[A*] Max Runtime was reached
[A*] choosing closest path as solution
-------------Waypoint------------
 9.89
-9.89
    0
Count: 19
Time for planner algorithm (RMADER - octopusSolver_ -> run): 59.6ms
[0m[ INFO] [1688977071.365565896]: [NL] A* found a feasible solution![0m
[0m[ INFO] [1688977071.366788229]: [NL] Using the A* guess[0m
The infeasible constraints of the initial Guess
Infeasible Constraints Highlighted in Red
_______________________
Indexes constraints
Obstacles: 0-->4799
Velocity: 4800-->5141
Accel: 5142-->5255
Total number of Constraints: 5336
_______________________
_______________________
Indexes variables
q: 0-->53
n: 54-->1253
d: 1254-->1653
Total number of Variables: 1654
_______________________
[NL] Optimizing now, allowing time = 50ms
[0m[ INFO] [1688977071.419277711]: [NL] Feasible, code=Maxtime_reached[0m
[NL] Feasible Solution found 52 ms 
q[N_]=  9.89 -9.89     0
obj_guess= 46.27698(45.55948 + 0.7174965)
obj_obtained= 46.27698(45.55948 + 0.7174965)
N_effective= 22
t_min= 0
t_max= 8.838835
num control points=100.4413
Time for planner algorithm (RMADER - snlopt.optimize(...)): 120.3398ms
Time_needed (line 241, test_nlopt):52ms
N_effective= 22
t_min= 0
t_max= 8.838835
num control points=100.4413
... logging to /home/cminghan/.ros/log/085b948e-1a38-11ee-bc96-00155df263c5/roslaunch-P-D21000977-25353.log
Checking log directory for disk usage. This may take a while.
Press Ctrl-C to interrupt
Done checking log file disk usage. Usage is <1GB.
]2;/home/cminghan/gcopter_ws/src/GCOPTER/gcopter/launch/nlopt_refresh.launch
[1mstarted roslaunch server http://P-D21000977:41509/[0m

SUMMARY
========

PARAMETERS
 * /rosdistro: noetic
 * /rosversion: 1.16.0
 * /test_nlopt/basis: MINVO

NODES
  /
    test_nlopt (gcopter/test_nlopt)

[1mROS_MASTER_URI=http://localhost:11311[0m
]2;/home/cminghan/gcopter_ws/src/GCOPTER/gcopter/launch/nlopt_refresh.launch http://localhost:11311
[1mprocess[test_nlopt-1]: started with pid [25367][0m
[test_nlopt-1] killing on exit
shutting down processing monitor...
... shutting down processing monitor complete
[1mdone[0m
Iteration Number: 7
-----------------------------------------------------
Basis= MINVO
hulls_curves.size()= 0
==============Initializing a SolverNLopt Object===================
t_min= 0
t_max= 8.83883
=========================
initial_state= 
Pos, Vel, Accel, Jerk= -10  10   0 0 0 0 0 0 0 0 0 0
final_state= 
Pos, Vel, Accel, Jerk=  10 -10   0 0 0 0 0 0 0 0 0 0
Calling optimize
Optimizing now...
==============Generating A Star Guess===================
[NL] Running A* from-10  10   0 to  10 -10   0, allowing time = 50 ms
seed:4203137400
=====================Running Octopus Search===================
[A*] Running...
[A*] Max Runtime was reached
[A*] choosing closest path as solution
-------------Waypoint------------
 9.89
-9.89
    0
Count: 19
Time for planner algorithm (RMADER - octopusSolver_ -> run): 57.7ms
[0m[ INFO] [1688977073.909384308]: [NL] A* found a feasible solution![0m
[0m[ INFO] [1688977073.910534856]: [NL] Using the A* guess[0m
The infeasible constraints of the initial Guess
Infeasible Constraints Highlighted in Red
_______________________
Indexes constraints
Obstacles: 0-->4799
Velocity: 4800-->5141
Accel: 5142-->5255
Total number of Constraints: 5336
_______________________
_______________________
Indexes variables
q: 0-->53
n: 54-->1253
d: 1254-->1653
Total number of Variables: 1654
_______________________
[NL] Optimizing now, allowing time = 50ms
[0m[ INFO] [1688977073.965548588]: [NL] Feasible, code=Maxtime_reached[0m
[NL] Feasible Solution found 54 ms 
q[N_]=  9.89 -9.89     0
obj_guess= 46.27698(45.55948 + 0.7174965)
obj_obtained= 46.27698(45.55948 + 0.7174965)
N_effective= 22
t_min= 0
t_max= 8.838835
num control points=100.4413
Time for planner algorithm (RMADER - snlopt.optimize(...)): 123.1509ms
Time_needed (line 241, test_nlopt):54ms
N_effective= 22
t_min= 0
t_max= 8.838835
num control points=100.4413
... logging to /home/cminghan/.ros/log/085b948e-1a38-11ee-bc96-00155df263c5/roslaunch-P-D21000977-25384.log
Checking log directory for disk usage. This may take a while.
Press Ctrl-C to interrupt
Done checking log file disk usage. Usage is <1GB.
]2;/home/cminghan/gcopter_ws/src/GCOPTER/gcopter/launch/nlopt_refresh.launch
[1mstarted roslaunch server http://P-D21000977:43041/[0m

SUMMARY
========

PARAMETERS
 * /rosdistro: noetic
 * /rosversion: 1.16.0
 * /test_nlopt/basis: MINVO

NODES
  /
    test_nlopt (gcopter/test_nlopt)

[1mROS_MASTER_URI=http://localhost:11311[0m
]2;/home/cminghan/gcopter_ws/src/GCOPTER/gcopter/launch/nlopt_refresh.launch http://localhost:11311
[1mprocess[test_nlopt-1]: started with pid [25398][0m
[test_nlopt-1] killing on exit
shutting down processing monitor...
... shutting down processing monitor complete
[1mdone[0m
Iteration Number: 8
-----------------------------------------------------
Basis= MINVO
hulls_curves.size()= 0
==============Initializing a SolverNLopt Object===================
t_min= 0
t_max= 8.83883
=========================
initial_state= 
Pos, Vel, Accel, Jerk= -10  10   0 0 0 0 0 0 0 0 0 0
final_state= 
Pos, Vel, Accel, Jerk=  10 -10   0 0 0 0 0 0 0 0 0 0
Calling optimize
Optimizing now...
==============Generating A Star Guess===================
[NL] Running A* from-10  10   0 to  10 -10   0, allowing time = 50 ms
seed:4203137400
=====================Running Octopus Search===================
[A*] Running...
[A*] Max Runtime was reached
[A*] choosing closest path as solution
-------------Waypoint------------
 9.89
-9.89
    0
Count: 19
Time for planner algorithm (RMADER - octopusSolver_ -> run): 59.4ms
[0m[ INFO] [1688977076.371687017]: [NL] A* found a feasible solution![0m
[0m[ INFO] [1688977076.372847152]: [NL] Using the A* guess[0m
The infeasible constraints of the initial Guess
Infeasible Constraints Highlighted in Red
_______________________
Indexes constraints
Obstacles: 0-->4799
Velocity: 4800-->5141
Accel: 5142-->5255
Total number of Constraints: 5336
_______________________
_______________________
Indexes variables
q: 0-->53
n: 54-->1253
d: 1254-->1653
Total number of Variables: 1654
_______________________
[NL] Optimizing now, allowing time = 50ms
[0m[ INFO] [1688977076.427484035]: [NL] Feasible, code=Maxtime_reached[0m
[NL] Feasible Solution found 54 ms 
q[N_]=  9.89 -9.89     0
obj_guess= 46.27698(45.55948 + 0.7174965)
obj_obtained= 46.27698(45.55948 + 0.7174965)
N_effective= 22
t_min= 0
t_max= 8.838835
num control points=100.4413
Time for planner algorithm (RMADER - snlopt.optimize(...)): 122.7065ms
Time_needed (line 241, test_nlopt):54ms
N_effective= 22
t_min= 0
t_max= 8.838835
num control points=100.4413
... logging to /home/cminghan/.ros/log/085b948e-1a38-11ee-bc96-00155df263c5/roslaunch-P-D21000977-25415.log
Checking log directory for disk usage. This may take a while.
Press Ctrl-C to interrupt
Done checking log file disk usage. Usage is <1GB.
]2;/home/cminghan/gcopter_ws/src/GCOPTER/gcopter/launch/nlopt_refresh.launch
[1mstarted roslaunch server http://P-D21000977:37459/[0m

SUMMARY
========

PARAMETERS
 * /rosdistro: noetic
 * /rosversion: 1.16.0
 * /test_nlopt/basis: MINVO

NODES
  /
    test_nlopt (gcopter/test_nlopt)

[1mROS_MASTER_URI=http://localhost:11311[0m
]2;/home/cminghan/gcopter_ws/src/GCOPTER/gcopter/launch/nlopt_refresh.launch http://localhost:11311
[1mprocess[test_nlopt-1]: started with pid [25429][0m
[test_nlopt-1] killing on exit
shutting down processing monitor...
... shutting down processing monitor complete
[1mdone[0m
Iteration Number: 9
-----------------------------------------------------
Basis= MINVO
hulls_curves.size()= 0
==============Initializing a SolverNLopt Object===================
t_min= 0
t_max= 8.83883
=========================
initial_state= 
Pos, Vel, Accel, Jerk= -10  10   0 0 0 0 0 0 0 0 0 0
final_state= 
Pos, Vel, Accel, Jerk=  10 -10   0 0 0 0 0 0 0 0 0 0
Calling optimize
Optimizing now...
==============Generating A Star Guess===================
[NL] Running A* from-10  10   0 to  10 -10   0, allowing time = 50 ms
seed:4203137400
=====================Running Octopus Search===================
[A*] Running...
[A*] Max Runtime was reached
[A*] choosing closest path as solution
-------------Waypoint------------
 9.89
-9.89
    0
Count: 19
Time for planner algorithm (RMADER - octopusSolver_ -> run): 57.5ms
[0m[ INFO] [1688977078.882306335]: [NL] A* found a feasible solution![0m
[0m[ INFO] [1688977078.883376676]: [NL] Using the A* guess[0m
The infeasible constraints of the initial Guess
Infeasible Constraints Highlighted in Red
_______________________
Indexes constraints
Obstacles: 0-->4799
Velocity: 4800-->5141
Accel: 5142-->5255
Total number of Constraints: 5336
_______________________
_______________________
Indexes variables
q: 0-->53
n: 54-->1253
d: 1254-->1653
Total number of Variables: 1654
_______________________
[NL] Optimizing now, allowing time = 50ms
[0m[ INFO] [1688977078.935411185]: [NL] Feasible, code=Maxtime_reached[0m
[NL] Feasible Solution found 51 ms 
q[N_]=  9.89 -9.89     0
obj_guess= 46.27698(45.55948 + 0.7174965)
obj_obtained= 46.27698(45.55948 + 0.7174965)
N_effective= 22
t_min= 0
t_max= 8.838835
num control points=100.4413
Time for planner algorithm (RMADER - snlopt.optimize(...)): 116.6569ms
Time_needed (line 241, test_nlopt):51ms
N_effective= 22
t_min= 0
t_max= 8.838835
num control points=100.4413
... logging to /home/cminghan/.ros/log/085b948e-1a38-11ee-bc96-00155df263c5/roslaunch-P-D21000977-25446.log
Checking log directory for disk usage. This may take a while.
Press Ctrl-C to interrupt
Done checking log file disk usage. Usage is <1GB.
]2;/home/cminghan/gcopter_ws/src/GCOPTER/gcopter/launch/nlopt_refresh.launch
[1mstarted roslaunch server http://P-D21000977:46233/[0m

SUMMARY
========

PARAMETERS
 * /rosdistro: noetic
 * /rosversion: 1.16.0
 * /test_nlopt/basis: MINVO

NODES
  /
    test_nlopt (gcopter/test_nlopt)

[1mROS_MASTER_URI=http://localhost:11311[0m
]2;/home/cminghan/gcopter_ws/src/GCOPTER/gcopter/launch/nlopt_refresh.launch http://localhost:11311
[1mprocess[test_nlopt-1]: started with pid [25460][0m
[test_nlopt-1] killing on exit
shutting down processing monitor...
... shutting down processing monitor complete
[1mdone[0m
Iteration Number: 10
-----------------------------------------------------
Basis= MINVO
hulls_curves.size()= 0
==============Initializing a SolverNLopt Object===================
t_min= 0
t_max= 8.83883
=========================
initial_state= 
Pos, Vel, Accel, Jerk= -10  10   0 0 0 0 0 0 0 0 0 0
final_state= 
Pos, Vel, Accel, Jerk=  10 -10   0 0 0 0 0 0 0 0 0 0
Calling optimize
Optimizing now...
==============Generating A Star Guess===================
[NL] Running A* from-10  10   0 to  10 -10   0, allowing time = 50 ms
seed:4203137400
=====================Running Octopus Search===================
[A*] Running...
[A*] Max Runtime was reached
[A*] choosing closest path as solution
-------------Waypoint------------
 9.89
-9.89
    0
Count: 19
Time for planner algorithm (RMADER - octopusSolver_ -> run): 57.2ms
[0m[ INFO] [1688977081.499168691]: [NL] A* found a feasible solution![0m
[0m[ INFO] [1688977081.500561284]: [NL] Using the A* guess[0m
The infeasible constraints of the initial Guess
Infeasible Constraints Highlighted in Red
_______________________
Indexes constraints
Obstacles: 0-->4799
Velocity: 4800-->5141
Accel: 5142-->5255
Total number of Constraints: 5336
_______________________
_______________________
Indexes variables
q: 0-->53
n: 54-->1253
d: 1254-->1653
Total number of Variables: 1654
_______________________
[NL] Optimizing now, allowing time = 50ms
[0m[ INFO] [1688977081.553267284]: [NL] Feasible, code=Maxtime_reached[0m
[NL] Feasible Solution found 52 ms 
q[N_]=  9.89 -9.89     0
obj_guess= 46.27698(45.55948 + 0.7174965)
obj_obtained= 46.27698(45.55948 + 0.7174965)
N_effective= 22
t_min= 0
t_max= 8.838835
num control points=100.4413
Time for planner algorithm (RMADER - snlopt.optimize(...)): 117.1962ms
Time_needed (line 241, test_nlopt):52ms
N_effective= 22
t_min= 0
t_max= 8.838835
num control points=100.4413
... logging to /home/cminghan/.ros/log/085b948e-1a38-11ee-bc96-00155df263c5/roslaunch-P-D21000977-25477.log
Checking log directory for disk usage. This may take a while.
Press Ctrl-C to interrupt
Done checking log file disk usage. Usage is <1GB.
]2;/home/cminghan/gcopter_ws/src/GCOPTER/gcopter/launch/nlopt_refresh.launch
[1mstarted roslaunch server http://P-D21000977:36947/[0m

SUMMARY
========

PARAMETERS
 * /rosdistro: noetic
 * /rosversion: 1.16.0
 * /test_nlopt/basis: MINVO

NODES
  /
    test_nlopt (gcopter/test_nlopt)

[1mROS_MASTER_URI=http://localhost:11311[0m
]2;/home/cminghan/gcopter_ws/src/GCOPTER/gcopter/launch/nlopt_refresh.launch http://localhost:11311
[1mprocess[test_nlopt-1]: started with pid [25491][0m
[test_nlopt-1] killing on exit
shutting down processing monitor...
... shutting down processing monitor complete
[1mdone[0m
Iteration Number: 11
-----------------------------------------------------
Basis= MINVO
hulls_curves.size()= 0
==============Initializing a SolverNLopt Object===================
t_min= 0
t_max= 8.83883
=========================
initial_state= 
Pos, Vel, Accel, Jerk= -10  10   0 0 0 0 0 0 0 0 0 0
final_state= 
Pos, Vel, Accel, Jerk=  10 -10   0 0 0 0 0 0 0 0 0 0
Calling optimize
Optimizing now...
==============Generating A Star Guess===================
[NL] Running A* from-10  10   0 to  10 -10   0, allowing time = 50 ms
seed:4203137400
=====================Running Octopus Search===================
[A*] Running...
[A*] Max Runtime was reached
[A*] choosing closest path as solution
-------------Waypoint------------
 9.89
-9.89
    0
Count: 19
Time for planner algorithm (RMADER - octopusSolver_ -> run): 57.5ms
[0m[ INFO] [1688977084.030771180]: [NL] A* found a feasible solution![0m
[0m[ INFO] [1688977084.032068687]: [NL] Using the A* guess[0m
The infeasible constraints of the initial Guess
Infeasible Constraints Highlighted in Red
_______________________
Indexes constraints
Obstacles: 0-->4799
Velocity: 4800-->5141
Accel: 5142-->5255
Total number of Constraints: 5336
_______________________
_______________________
Indexes variables
q: 0-->53
n: 54-->1253
d: 1254-->1653
Total number of Variables: 1654
_______________________
[NL] Optimizing now, allowing time = 50ms
[0m[ INFO] [1688977084.085463984]: [NL] Feasible, code=Maxtime_reached[0m
[NL] Feasible Solution found 53 ms 
q[N_]=  9.89 -9.89     0
obj_guess= 46.27698(45.55948 + 0.7174965)
obj_obtained= 46.27698(45.55948 + 0.7174965)
N_effective= 22
t_min= 0
t_max= 8.838835
num control points=100.4413
Time for planner algorithm (RMADER - snlopt.optimize(...)): 118.1315ms
Time_needed (line 241, test_nlopt):53ms
N_effective= 22
t_min= 0
t_max= 8.838835
num control points=100.4413
... logging to /home/cminghan/.ros/log/085b948e-1a38-11ee-bc96-00155df263c5/roslaunch-P-D21000977-25508.log
Checking log directory for disk usage. This may take a while.
Press Ctrl-C to interrupt
Done checking log file disk usage. Usage is <1GB.
]2;/home/cminghan/gcopter_ws/src/GCOPTER/gcopter/launch/nlopt_refresh.launch
[1mstarted roslaunch server http://P-D21000977:34723/[0m

SUMMARY
========

PARAMETERS
 * /rosdistro: noetic
 * /rosversion: 1.16.0
 * /test_nlopt/basis: MINVO

NODES
  /
    test_nlopt (gcopter/test_nlopt)

[1mROS_MASTER_URI=http://localhost:11311[0m
]2;/home/cminghan/gcopter_ws/src/GCOPTER/gcopter/launch/nlopt_refresh.launch http://localhost:11311
[1mprocess[test_nlopt-1]: started with pid [25522][0m
[test_nlopt-1] killing on exit
shutting down processing monitor...
... shutting down processing monitor complete
[1mdone[0m
Iteration Number: 12
-----------------------------------------------------
Basis= MINVO
hulls_curves.size()= 0
==============Initializing a SolverNLopt Object===================
t_min= 0
t_max= 8.83883
=========================
initial_state= 
Pos, Vel, Accel, Jerk= -10  10   0 0 0 0 0 0 0 0 0 0
final_state= 
Pos, Vel, Accel, Jerk=  10 -10   0 0 0 0 0 0 0 0 0 0
Calling optimize
Optimizing now...
==============Generating A Star Guess===================
[NL] Running A* from-10  10   0 to  10 -10   0, allowing time = 50 ms
seed:4203137400
=====================Running Octopus Search===================
[A*] Running...
[A*] Max Runtime was reached
[A*] choosing closest path as solution
-------------Waypoint------------
 9.89
-9.89
    0
Count: 19
Time for planner algorithm (RMADER - octopusSolver_ -> run): 58.3ms
[0m[ INFO] [1688977086.582933461]: [NL] A* found a feasible solution![0m
[0m[ INFO] [1688977086.584360486]: [NL] Using the A* guess[0m
The infeasible constraints of the initial Guess
Infeasible Constraints Highlighted in Red
_______________________
Indexes constraints
Obstacles: 0-->4799
Velocity: 4800-->5141
Accel: 5142-->5255
Total number of Constraints: 5336
_______________________
_______________________
Indexes variables
q: 0-->53
n: 54-->1253
d: 1254-->1653
Total number of Variables: 1654
_______________________
[NL] Optimizing now, allowing time = 50ms
[0m[ INFO] [1688977086.641559846]: [NL] Feasible, code=Maxtime_reached[0m
[NL] Feasible Solution found 56 ms 
q[N_]=  9.89 -9.89     0
obj_guess= 46.27698(45.55948 + 0.7174965)
obj_obtained= 46.27698(45.55948 + 0.7174965)
N_effective= 22
t_min= 0
t_max= 8.838835
num control points=100.4413
Time for planner algorithm (RMADER - snlopt.optimize(...)): 123.6329ms
Time_needed (line 241, test_nlopt):56ms
N_effective= 22
t_min= 0
t_max= 8.838835
num control points=100.4413
... logging to /home/cminghan/.ros/log/085b948e-1a38-11ee-bc96-00155df263c5/roslaunch-P-D21000977-25539.log
Checking log directory for disk usage. This may take a while.
Press Ctrl-C to interrupt
Done checking log file disk usage. Usage is <1GB.
]2;/home/cminghan/gcopter_ws/src/GCOPTER/gcopter/launch/nlopt_refresh.launch
[1mstarted roslaunch server http://P-D21000977:42113/[0m

SUMMARY
========

PARAMETERS
 * /rosdistro: noetic
 * /rosversion: 1.16.0
 * /test_nlopt/basis: MINVO

NODES
  /
    test_nlopt (gcopter/test_nlopt)

[1mROS_MASTER_URI=http://localhost:11311[0m
]2;/home/cminghan/gcopter_ws/src/GCOPTER/gcopter/launch/nlopt_refresh.launch http://localhost:11311
[1mprocess[test_nlopt-1]: started with pid [25553][0m
[test_nlopt-1] killing on exit
shutting down processing monitor...
... shutting down processing monitor complete
[1mdone[0m
Iteration Number: 13
-----------------------------------------------------
Basis= MINVO
hulls_curves.size()= 0
==============Initializing a SolverNLopt Object===================
t_min= 0
t_max= 8.83883
=========================
initial_state= 
Pos, Vel, Accel, Jerk= -10  10   0 0 0 0 0 0 0 0 0 0
final_state= 
Pos, Vel, Accel, Jerk=  10 -10   0 0 0 0 0 0 0 0 0 0
Calling optimize
Optimizing now...
==============Generating A Star Guess===================
[NL] Running A* from-10  10   0 to  10 -10   0, allowing time = 50 ms
seed:4203137400
=====================Running Octopus Search===================
[A*] Running...
[A*] Max Runtime was reached
[A*] choosing closest path as solution
-------------Waypoint------------
 9.89
-9.89
    0
Count: 19
Time for planner algorithm (RMADER - octopusSolver_ -> run): 57.6ms
[0m[ INFO] [1688977089.042891602]: [NL] A* found a feasible solution![0m
[0m[ INFO] [1688977089.043922278]: [NL] Using the A* guess[0m
The infeasible constraints of the initial Guess
Infeasible Constraints Highlighted in Red
_______________________
Indexes constraints
Obstacles: 0-->4799
Velocity: 4800-->5141
Accel: 5142-->5255
Total number of Constraints: 5336
_______________________
_______________________
Indexes variables
q: 0-->53
n: 54-->1253
d: 1254-->1653
Total number of Variables: 1654
_______________________
[NL] Optimizing now, allowing time = 50ms
[0m[ INFO] [1688977089.096681771]: [NL] Feasible, code=Maxtime_reached[0m
[NL] Feasible Solution found 52 ms 
q[N_]=  9.89 -9.89     0
obj_guess= 46.27698(45.55948 + 0.7174965)
obj_obtained= 46.27698(45.55948 + 0.7174965)
N_effective= 22
t_min= 0
t_max= 8.838835
num control points=100.4413
Time for planner algorithm (RMADER - snlopt.optimize(...)): 117.4466ms
Time_needed (line 241, test_nlopt):52ms
N_effective= 22
t_min= 0
t_max= 8.838835
num control points=100.4413
... logging to /home/cminghan/.ros/log/085b948e-1a38-11ee-bc96-00155df263c5/roslaunch-P-D21000977-25570.log
Checking log directory for disk usage. This may take a while.
Press Ctrl-C to interrupt
Done checking log file disk usage. Usage is <1GB.
]2;/home/cminghan/gcopter_ws/src/GCOPTER/gcopter/launch/nlopt_refresh.launch
[1mstarted roslaunch server http://P-D21000977:38211/[0m

SUMMARY
========

PARAMETERS
 * /rosdistro: noetic
 * /rosversion: 1.16.0
 * /test_nlopt/basis: MINVO

NODES
  /
    test_nlopt (gcopter/test_nlopt)

[1mROS_MASTER_URI=http://localhost:11311[0m
]2;/home/cminghan/gcopter_ws/src/GCOPTER/gcopter/launch/nlopt_refresh.launch http://localhost:11311
[1mprocess[test_nlopt-1]: started with pid [25584][0m
[test_nlopt-1] killing on exit
shutting down processing monitor...
... shutting down processing monitor complete
[1mdone[0m
Iteration Number: 14
-----------------------------------------------------
Basis= MINVO
hulls_curves.size()= 0
==============Initializing a SolverNLopt Object===================
t_min= 0
t_max= 8.83883
=========================
initial_state= 
Pos, Vel, Accel, Jerk= -10  10   0 0 0 0 0 0 0 0 0 0
final_state= 
Pos, Vel, Accel, Jerk=  10 -10   0 0 0 0 0 0 0 0 0 0
Calling optimize
Optimizing now...
==============Generating A Star Guess===================
[NL] Running A* from-10  10   0 to  10 -10   0, allowing time = 50 ms
seed:4203137400
=====================Running Octopus Search===================
[A*] Running...
[A*] Max Runtime was reached
[A*] choosing closest path as solution
-------------Waypoint------------
 9.89
-9.89
    0
Count: 19
Time for planner algorithm (RMADER - octopusSolver_ -> run): 57.1ms
[0m[ INFO] [1688977091.460934650]: [NL] A* found a feasible solution![0m
[0m[ INFO] [1688977091.461812803]: [NL] Using the A* guess[0m
The infeasible constraints of the initial Guess
Infeasible Constraints Highlighted in Red
_______________________
Indexes constraints
Obstacles: 0-->4799
Velocity: 4800-->5141
Accel: 5142-->5255
Total number of Constraints: 5336
_______________________
_______________________
Indexes variables
q: 0-->53
n: 54-->1253
d: 1254-->1653
Total number of Variables: 1654
_______________________
[NL] Optimizing now, allowing time = 50ms
[0m[ INFO] [1688977091.515466499]: [NL] Feasible, code=Maxtime_reached[0m
[NL] Feasible Solution found 53 ms 
q[N_]=  9.89 -9.89     0
obj_guess= 46.27698(45.55948 + 0.7174965)
obj_obtained= 46.27698(45.55948 + 0.7174965)
N_effective= 22
t_min= 0
t_max= 8.838835
num control points=100.4413
Time for planner algorithm (RMADER - snlopt.optimize(...)): 118.8058ms
Time_needed (line 241, test_nlopt):53ms
N_effective= 22
t_min= 0
t_max= 8.838835
num control points=100.4413
... logging to /home/cminghan/.ros/log/085b948e-1a38-11ee-bc96-00155df263c5/roslaunch-P-D21000977-25601.log
Checking log directory for disk usage. This may take a while.
Press Ctrl-C to interrupt
Done checking log file disk usage. Usage is <1GB.
]2;/home/cminghan/gcopter_ws/src/GCOPTER/gcopter/launch/nlopt_refresh.launch
[1mstarted roslaunch server http://P-D21000977:38465/[0m

SUMMARY
========

PARAMETERS
 * /rosdistro: noetic
 * /rosversion: 1.16.0
 * /test_nlopt/basis: MINVO

NODES
  /
    test_nlopt (gcopter/test_nlopt)

[1mROS_MASTER_URI=http://localhost:11311[0m
]2;/home/cminghan/gcopter_ws/src/GCOPTER/gcopter/launch/nlopt_refresh.launch http://localhost:11311
[1mprocess[test_nlopt-1]: started with pid [25615][0m
[test_nlopt-1] killing on exit
shutting down processing monitor...
... shutting down processing monitor complete
[1mdone[0m
Iteration Number: 15
-----------------------------------------------------
Basis= MINVO
hulls_curves.size()= 0
==============Initializing a SolverNLopt Object===================
t_min= 0
t_max= 8.83883
=========================
initial_state= 
Pos, Vel, Accel, Jerk= -10  10   0 0 0 0 0 0 0 0 0 0
final_state= 
Pos, Vel, Accel, Jerk=  10 -10   0 0 0 0 0 0 0 0 0 0
Calling optimize
Optimizing now...
==============Generating A Star Guess===================
[NL] Running A* from-10  10   0 to  10 -10   0, allowing time = 50 ms
seed:4203137400
=====================Running Octopus Search===================
[A*] Running...
[A*] Max Runtime was reached
[A*] choosing closest path as solution
-------------Waypoint------------
 9.89
-9.89
    0
Count: 19
Time for planner algorithm (RMADER - octopusSolver_ -> run): 57.9ms
[0m[ INFO] [1688977094.003118905]: [NL] A* found a feasible solution![0m
[0m[ INFO] [1688977094.004253029]: [NL] Using the A* guess[0m
The infeasible constraints of the initial Guess
Infeasible Constraints Highlighted in Red
_______________________
Indexes constraints
Obstacles: 0-->4799
Velocity: 4800-->5141
Accel: 5142-->5255
Total number of Constraints: 5336
_______________________
_______________________
Indexes variables
q: 0-->53
n: 54-->1253
d: 1254-->1653
Total number of Variables: 1654
_______________________
[NL] Optimizing now, allowing time = 50ms
[0m[ INFO] [1688977094.057508182]: [NL] Feasible, code=Maxtime_reached[0m
[NL] Feasible Solution found 52 ms 
q[N_]=  9.89 -9.89     0
obj_guess= 46.27698(45.55948 + 0.7174965)
obj_obtained= 46.27698(45.55948 + 0.7174965)
N_effective= 22
t_min= 0
t_max= 8.838835
num control points=100.4413
Time for planner algorithm (RMADER - snlopt.optimize(...)): 118.4303ms
Time_needed (line 241, test_nlopt):52ms
N_effective= 22
t_min= 0
t_max= 8.838835
num control points=100.4413
... logging to /home/cminghan/.ros/log/085b948e-1a38-11ee-bc96-00155df263c5/roslaunch-P-D21000977-25632.log
Checking log directory for disk usage. This may take a while.
Press Ctrl-C to interrupt
Done checking log file disk usage. Usage is <1GB.
]2;/home/cminghan/gcopter_ws/src/GCOPTER/gcopter/launch/nlopt_refresh.launch
[1mstarted roslaunch server http://P-D21000977:33417/[0m

SUMMARY
========

PARAMETERS
 * /rosdistro: noetic
 * /rosversion: 1.16.0
 * /test_nlopt/basis: MINVO

NODES
  /
    test_nlopt (gcopter/test_nlopt)

[1mROS_MASTER_URI=http://localhost:11311[0m
]2;/home/cminghan/gcopter_ws/src/GCOPTER/gcopter/launch/nlopt_refresh.launch http://localhost:11311
[1mprocess[test_nlopt-1]: started with pid [25646][0m
[test_nlopt-1] killing on exit
shutting down processing monitor...
... shutting down processing monitor complete
[1mdone[0m
Iteration Number: 16
-----------------------------------------------------
Basis= MINVO
hulls_curves.size()= 0
==============Initializing a SolverNLopt Object===================
t_min= 0
t_max= 8.83883
=========================
initial_state= 
Pos, Vel, Accel, Jerk= -10  10   0 0 0 0 0 0 0 0 0 0
final_state= 
Pos, Vel, Accel, Jerk=  10 -10   0 0 0 0 0 0 0 0 0 0
Calling optimize
Optimizing now...
==============Generating A Star Guess===================
[NL] Running A* from-10  10   0 to  10 -10   0, allowing time = 50 ms
seed:4203137400
=====================Running Octopus Search===================
[A*] Running...
[A*] Max Runtime was reached
[A*] choosing closest path as solution
-------------Waypoint------------
 9.89
-9.89
    0
Count: 19
Time for planner algorithm (RMADER - octopusSolver_ -> run): 57.7ms
[0m[ INFO] [1688977096.411695120]: [NL] A* found a feasible solution![0m
[0m[ INFO] [1688977096.412706521]: [NL] Using the A* guess[0m
The infeasible constraints of the initial Guess
Infeasible Constraints Highlighted in Red
_______________________
Indexes constraints
Obstacles: 0-->4799
Velocity: 4800-->5141
Accel: 5142-->5255
Total number of Constraints: 5336
_______________________
_______________________
Indexes variables
q: 0-->53
n: 54-->1253
d: 1254-->1653
Total number of Variables: 1654
_______________________
[NL] Optimizing now, allowing time = 50ms
[0m[ INFO] [1688977096.466168094]: [NL] Feasible, code=Maxtime_reached[0m
[NL] Feasible Solution found 53 ms 
q[N_]=  9.89 -9.89     0
obj_guess= 46.27698(45.55948 + 0.7174965)
obj_obtained= 46.27698(45.55948 + 0.7174965)
N_effective= 22
t_min= 0
t_max= 8.838835
num control points=100.4413
Time for planner algorithm (RMADER - snlopt.optimize(...)): 118.1449ms
Time_needed (line 241, test_nlopt):53ms
N_effective= 22
t_min= 0
t_max= 8.838835
num control points=100.4413
... logging to /home/cminghan/.ros/log/085b948e-1a38-11ee-bc96-00155df263c5/roslaunch-P-D21000977-25663.log
Checking log directory for disk usage. This may take a while.
Press Ctrl-C to interrupt
Done checking log file disk usage. Usage is <1GB.
]2;/home/cminghan/gcopter_ws/src/GCOPTER/gcopter/launch/nlopt_refresh.launch
[1mstarted roslaunch server http://P-D21000977:45393/[0m

SUMMARY
========

PARAMETERS
 * /rosdistro: noetic
 * /rosversion: 1.16.0
 * /test_nlopt/basis: MINVO

NODES
  /
    test_nlopt (gcopter/test_nlopt)

[1mROS_MASTER_URI=http://localhost:11311[0m
]2;/home/cminghan/gcopter_ws/src/GCOPTER/gcopter/launch/nlopt_refresh.launch http://localhost:11311
[1mprocess[test_nlopt-1]: started with pid [25677][0m
[test_nlopt-1] killing on exit
shutting down processing monitor...
... shutting down processing monitor complete
[1mdone[0m
Iteration Number: 17
-----------------------------------------------------
Basis= MINVO
hulls_curves.size()= 0
==============Initializing a SolverNLopt Object===================
t_min= 0
t_max= 8.83883
=========================
initial_state= 
Pos, Vel, Accel, Jerk= -10  10   0 0 0 0 0 0 0 0 0 0
final_state= 
Pos, Vel, Accel, Jerk=  10 -10   0 0 0 0 0 0 0 0 0 0
Calling optimize
Optimizing now...
==============Generating A Star Guess===================
[NL] Running A* from-10  10   0 to  10 -10   0, allowing time = 50 ms
seed:4203137400
=====================Running Octopus Search===================
[A*] Running...
[A*] Max Runtime was reached
[A*] choosing closest path as solution
-------------Waypoint------------
 9.89
-9.89
    0
Count: 19
Time for planner algorithm (RMADER - octopusSolver_ -> run): 58ms
[0m[ INFO] [1688977098.940544307]: [NL] A* found a feasible solution![0m
[0m[ INFO] [1688977098.941687135]: [NL] Using the A* guess[0m
The infeasible constraints of the initial Guess
Infeasible Constraints Highlighted in Red
_______________________
Indexes constraints
Obstacles: 0-->4799
Velocity: 4800-->5141
Accel: 5142-->5255
Total number of Constraints: 5336
_______________________
_______________________
Indexes variables
q: 0-->53
n: 54-->1253
d: 1254-->1653
Total number of Variables: 1654
_______________________
[NL] Optimizing now, allowing time = 50ms
[0m[ INFO] [1688977098.997664253]: [NL] Feasible, code=Maxtime_reached[0m
[NL] Feasible Solution found 55 ms 
q[N_]=  9.89 -9.89     0
obj_guess= 46.27698(45.55948 + 0.7174965)
obj_obtained= 46.27698(45.55948 + 0.7174965)
N_effective= 22
t_min= 0
t_max= 8.838835
num control points=100.4413
Time for planner algorithm (RMADER - snlopt.optimize(...)): 122.9502ms
Time_needed (line 241, test_nlopt):55ms
N_effective= 22
t_min= 0
t_max= 8.838835
num control points=100.4413
... logging to /home/cminghan/.ros/log/085b948e-1a38-11ee-bc96-00155df263c5/roslaunch-P-D21000977-25694.log
Checking log directory for disk usage. This may take a while.
Press Ctrl-C to interrupt
Done checking log file disk usage. Usage is <1GB.
]2;/home/cminghan/gcopter_ws/src/GCOPTER/gcopter/launch/nlopt_refresh.launch
[1mstarted roslaunch server http://P-D21000977:36909/[0m

SUMMARY
========

PARAMETERS
 * /rosdistro: noetic
 * /rosversion: 1.16.0
 * /test_nlopt/basis: MINVO

NODES
  /
    test_nlopt (gcopter/test_nlopt)

[1mROS_MASTER_URI=http://localhost:11311[0m
]2;/home/cminghan/gcopter_ws/src/GCOPTER/gcopter/launch/nlopt_refresh.launch http://localhost:11311
[1mprocess[test_nlopt-1]: started with pid [25708][0m
[test_nlopt-1] killing on exit
shutting down processing monitor...
... shutting down processing monitor complete
[1mdone[0m
Iteration Number: 18
-----------------------------------------------------
Basis= MINVO
hulls_curves.size()= 0
==============Initializing a SolverNLopt Object===================
t_min= 0
t_max= 8.83883
=========================
initial_state= 
Pos, Vel, Accel, Jerk= -10  10   0 0 0 0 0 0 0 0 0 0
final_state= 
Pos, Vel, Accel, Jerk=  10 -10   0 0 0 0 0 0 0 0 0 0
Calling optimize
Optimizing now...
==============Generating A Star Guess===================
[NL] Running A* from-10  10   0 to  10 -10   0, allowing time = 50 ms
seed:4203137400
=====================Running Octopus Search===================
[A*] Running...
[A*] Max Runtime was reached
[A*] choosing closest path as solution
-------------Waypoint------------
 9.89
-9.89
    0
Count: 19
Time for planner algorithm (RMADER - octopusSolver_ -> run): 63.4ms
[0m[ INFO] [1688977101.546687059]: [NL] A* found a feasible solution![0m
[0m[ INFO] [1688977101.550461814]: [NL] Using the A* guess[0m
The infeasible constraints of the initial Guess
Infeasible Constraints Highlighted in Red
_______________________
Indexes constraints
Obstacles: 0-->4799
Velocity: 4800-->5141
Accel: 5142-->5255
Total number of Constraints: 5336
_______________________
_______________________
Indexes variables
q: 0-->53
n: 54-->1253
d: 1254-->1653
Total number of Variables: 1654
_______________________
[NL] Optimizing now, allowing time = 50ms
[0m[ INFO] [1688977101.608947080]: [NL] Feasible, code=Maxtime_reached[0m
[NL] Feasible Solution found 58 ms 
q[N_]=  9.89 -9.89     0
obj_guess= 46.27698(45.55948 + 0.7174965)
obj_obtained= 46.27698(45.55948 + 0.7174965)
N_effective= 22
t_min= 0
t_max= 8.838835
num control points=100.4413
Time for planner algorithm (RMADER - snlopt.optimize(...)): 135.0089ms
Time_needed (line 241, test_nlopt):57ms
N_effective= 22
t_min= 0
t_max= 8.838835
num control points=100.4413
... logging to /home/cminghan/.ros/log/085b948e-1a38-11ee-bc96-00155df263c5/roslaunch-P-D21000977-25725.log
Checking log directory for disk usage. This may take a while.
Press Ctrl-C to interrupt
Done checking log file disk usage. Usage is <1GB.
]2;/home/cminghan/gcopter_ws/src/GCOPTER/gcopter/launch/nlopt_refresh.launch
[1mstarted roslaunch server http://P-D21000977:46303/[0m

SUMMARY
========

PARAMETERS
 * /rosdistro: noetic
 * /rosversion: 1.16.0
 * /test_nlopt/basis: MINVO

NODES
  /
    test_nlopt (gcopter/test_nlopt)

[1mROS_MASTER_URI=http://localhost:11311[0m
]2;/home/cminghan/gcopter_ws/src/GCOPTER/gcopter/launch/nlopt_refresh.launch http://localhost:11311
[1mprocess[test_nlopt-1]: started with pid [25739][0m
[test_nlopt-1] killing on exit
shutting down processing monitor...
... shutting down processing monitor complete
[1mdone[0m
Iteration Number: 19
-----------------------------------------------------
Basis= MINVO
hulls_curves.size()= 0
==============Initializing a SolverNLopt Object===================
t_min= 0
t_max= 8.83883
=========================
initial_state= 
Pos, Vel, Accel, Jerk= -10  10   0 0 0 0 0 0 0 0 0 0
final_state= 
Pos, Vel, Accel, Jerk=  10 -10   0 0 0 0 0 0 0 0 0 0
Calling optimize
Optimizing now...
==============Generating A Star Guess===================
[NL] Running A* from-10  10   0 to  10 -10   0, allowing time = 50 ms
seed:4203137400
=====================Running Octopus Search===================
[A*] Running...
[A*] Max Runtime was reached
[A*] choosing closest path as solution
-------------Waypoint------------
 9.89
-9.89
    0
Count: 19
Time for planner algorithm (RMADER - octopusSolver_ -> run): 57.3ms
[0m[ INFO] [1688977103.974403657]: [NL] A* found a feasible solution![0m
[0m[ INFO] [1688977103.976095559]: [NL] Using the A* guess[0m
The infeasible constraints of the initial Guess
Infeasible Constraints Highlighted in Red
_______________________
Indexes constraints
Obstacles: 0-->4799
Velocity: 4800-->5141
Accel: 5142-->5255
Total number of Constraints: 5336
_______________________
_______________________
Indexes variables
q: 0-->53
n: 54-->1253
d: 1254-->1653
Total number of Variables: 1654
_______________________
[NL] Optimizing now, allowing time = 50ms
[0m[ INFO] [1688977104.028605914]: [NL] Feasible, code=Maxtime_reached[0m
[NL] Feasible Solution found 52 ms 
q[N_]=  9.89 -9.89     0
obj_guess= 46.27698(45.55948 + 0.7174965)
obj_obtained= 46.27698(45.55948 + 0.7174965)
N_effective= 22
t_min= 0
t_max= 8.838835
num control points=100.4413
Time for planner algorithm (RMADER - snlopt.optimize(...)): 117.6024ms
Time_needed (line 241, test_nlopt):52ms
N_effective= 22
t_min= 0
t_max= 8.838835
num control points=100.4413
... logging to /home/cminghan/.ros/log/085b948e-1a38-11ee-bc96-00155df263c5/roslaunch-P-D21000977-25756.log
Checking log directory for disk usage. This may take a while.
Press Ctrl-C to interrupt
Done checking log file disk usage. Usage is <1GB.
]2;/home/cminghan/gcopter_ws/src/GCOPTER/gcopter/launch/nlopt_refresh.launch
[1mstarted roslaunch server http://P-D21000977:32969/[0m

SUMMARY
========

PARAMETERS
 * /rosdistro: noetic
 * /rosversion: 1.16.0
 * /test_nlopt/basis: MINVO

NODES
  /
    test_nlopt (gcopter/test_nlopt)

[1mROS_MASTER_URI=http://localhost:11311[0m
]2;/home/cminghan/gcopter_ws/src/GCOPTER/gcopter/launch/nlopt_refresh.launch http://localhost:11311
[1mprocess[test_nlopt-1]: started with pid [25770][0m
[test_nlopt-1] killing on exit
shutting down processing monitor...
... shutting down processing monitor complete
[1mdone[0m
Iteration Number: 20
-----------------------------------------------------
Basis= MINVO
hulls_curves.size()= 0
==============Initializing a SolverNLopt Object===================
t_min= 0
t_max= 8.83883
=========================
initial_state= 
Pos, Vel, Accel, Jerk= -10  10   0 0 0 0 0 0 0 0 0 0
final_state= 
Pos, Vel, Accel, Jerk=  10 -10   0 0 0 0 0 0 0 0 0 0
Calling optimize
Optimizing now...
==============Generating A Star Guess===================
[NL] Running A* from-10  10   0 to  10 -10   0, allowing time = 50 ms
seed:4203137400
=====================Running Octopus Search===================
[A*] Running...
[A*] Max Runtime was reached
[A*] choosing closest path as solution
-------------Waypoint------------
 9.89
-9.89
    0
Count: 19
Time for planner algorithm (RMADER - octopusSolver_ -> run): 58.7ms
[0m[ INFO] [1688977106.445130397]: [NL] A* found a feasible solution![0m
[0m[ INFO] [1688977106.448520996]: [NL] Using the A* guess[0m
The infeasible constraints of the initial Guess
Infeasible Constraints Highlighted in Red
_______________________
Indexes constraints
Obstacles: 0-->4799
Velocity: 4800-->5141
Accel: 5142-->5255
Total number of Constraints: 5336
_______________________
_______________________
Indexes variables
q: 0-->53
n: 54-->1253
d: 1254-->1653
Total number of Variables: 1654
_______________________
[NL] Optimizing now, allowing time = 50ms
[0m[ INFO] [1688977106.515017660]: [NL] Feasible, code=Maxtime_reached[0m
[NL] Feasible Solution found 66 ms 
q[N_]=  9.89 -9.89     0
obj_guess= 46.27698(45.55948 + 0.7174965)
obj_obtained= 46.27698(45.55948 + 0.7174965)
N_effective= 22
t_min= 0
t_max= 8.838835
num control points=100.4413
Time for planner algorithm (RMADER - snlopt.optimize(...)): 135.8263ms
Time_needed (line 241, test_nlopt):65ms
N_effective= 22
t_min= 0
t_max= 8.838835
num control points=100.4413
... logging to /home/cminghan/.ros/log/085b948e-1a38-11ee-bc96-00155df263c5/roslaunch-P-D21000977-25787.log
Checking log directory for disk usage. This may take a while.
Press Ctrl-C to interrupt
Done checking log file disk usage. Usage is <1GB.
]2;/home/cminghan/gcopter_ws/src/GCOPTER/gcopter/launch/nlopt_refresh.launch
[1mstarted roslaunch server http://P-D21000977:36453/[0m

SUMMARY
========

PARAMETERS
 * /rosdistro: noetic
 * /rosversion: 1.16.0
 * /test_nlopt/basis: MINVO

NODES
  /
    test_nlopt (gcopter/test_nlopt)

[1mROS_MASTER_URI=http://localhost:11311[0m
]2;/home/cminghan/gcopter_ws/src/GCOPTER/gcopter/launch/nlopt_refresh.launch http://localhost:11311
[1mprocess[test_nlopt-1]: started with pid [25801][0m
[test_nlopt-1] killing on exit
shutting down processing monitor...
... shutting down processing monitor complete
[1mdone[0m
Iteration Number: 21
-----------------------------------------------------
Basis= MINVO
hulls_curves.size()= 0
==============Initializing a SolverNLopt Object===================
t_min= 0
t_max= 8.83883
=========================
initial_state= 
Pos, Vel, Accel, Jerk= -10  10   0 0 0 0 0 0 0 0 0 0
final_state= 
Pos, Vel, Accel, Jerk=  10 -10   0 0 0 0 0 0 0 0 0 0
Calling optimize
Optimizing now...
==============Generating A Star Guess===================
[NL] Running A* from-10  10   0 to  10 -10   0, allowing time = 50 ms
seed:4203137400
=====================Running Octopus Search===================
[A*] Running...
[A*] Max Runtime was reached
[A*] choosing closest path as solution
-------------Waypoint------------
 9.89
-9.89
    0
Count: 19
Time for planner algorithm (RMADER - octopusSolver_ -> run): 57.3ms
[0m[ INFO] [1688977108.838826273]: [NL] A* found a feasible solution![0m
[0m[ INFO] [1688977108.839976456]: [NL] Using the A* guess[0m
The infeasible constraints of the initial Guess
Infeasible Constraints Highlighted in Red
_______________________
Indexes constraints
Obstacles: 0-->4799
Velocity: 4800-->5141
Accel: 5142-->5255
Total number of Constraints: 5336
_______________________
_______________________
Indexes variables
q: 0-->53
n: 54-->1253
d: 1254-->1653
Total number of Variables: 1654
_______________________
[NL] Optimizing now, allowing time = 50ms
[0m[ INFO] [1688977108.892847254]: [NL] Feasible, code=Maxtime_reached[0m
[NL] Feasible Solution found 52 ms 
q[N_]=  9.89 -9.89     0
obj_guess= 46.27698(45.55948 + 0.7174965)
obj_obtained= 46.27698(45.55948 + 0.7174965)
N_effective= 22
t_min= 0
t_max= 8.838835
num control points=100.4413
Time for planner algorithm (RMADER - snlopt.optimize(...)): 117.6759ms
Time_needed (line 241, test_nlopt):52ms
N_effective= 22
t_min= 0
t_max= 8.838835
num control points=100.4413
... logging to /home/cminghan/.ros/log/085b948e-1a38-11ee-bc96-00155df263c5/roslaunch-P-D21000977-25818.log
Checking log directory for disk usage. This may take a while.
Press Ctrl-C to interrupt
Done checking log file disk usage. Usage is <1GB.
]2;/home/cminghan/gcopter_ws/src/GCOPTER/gcopter/launch/nlopt_refresh.launch
[1mstarted roslaunch server http://P-D21000977:41421/[0m

SUMMARY
========

PARAMETERS
 * /rosdistro: noetic
 * /rosversion: 1.16.0
 * /test_nlopt/basis: MINVO

NODES
  /
    test_nlopt (gcopter/test_nlopt)

[1mROS_MASTER_URI=http://localhost:11311[0m
]2;/home/cminghan/gcopter_ws/src/GCOPTER/gcopter/launch/nlopt_refresh.launch http://localhost:11311
[1mprocess[test_nlopt-1]: started with pid [25832][0m
[test_nlopt-1] killing on exit
shutting down processing monitor...
... shutting down processing monitor complete
[1mdone[0m
Iteration Number: 22
-----------------------------------------------------
Basis= MINVO
hulls_curves.size()= 0
==============Initializing a SolverNLopt Object===================
t_min= 0
t_max= 8.83883
=========================
initial_state= 
Pos, Vel, Accel, Jerk= -10  10   0 0 0 0 0 0 0 0 0 0
final_state= 
Pos, Vel, Accel, Jerk=  10 -10   0 0 0 0 0 0 0 0 0 0
Calling optimize
Optimizing now...
==============Generating A Star Guess===================
[NL] Running A* from-10  10   0 to  10 -10   0, allowing time = 50 ms
seed:4203137400
=====================Running Octopus Search===================
[A*] Running...
[A*] Max Runtime was reached
[A*] choosing closest path as solution
-------------Waypoint------------
 9.89
-9.89
    0
Count: 19
Time for planner algorithm (RMADER - octopusSolver_ -> run): 57.4ms
[0m[ INFO] [1688977111.353216921]: [NL] A* found a feasible solution![0m
[0m[ INFO] [1688977111.354590734]: [NL] Using the A* guess[0m
The infeasible constraints of the initial Guess
Infeasible Constraints Highlighted in Red
_______________________
Indexes constraints
Obstacles: 0-->4799
Velocity: 4800-->5141
Accel: 5142-->5255
Total number of Constraints: 5336
_______________________
_______________________
Indexes variables
q: 0-->53
n: 54-->1253
d: 1254-->1653
Total number of Variables: 1654
_______________________
[NL] Optimizing now, allowing time = 50ms
[0m[ INFO] [1688977111.406972808]: [NL] Feasible, code=Maxtime_reached[0m
[NL] Feasible Solution found 52 ms 
q[N_]=  9.89 -9.89     0
obj_guess= 46.27698(45.55948 + 0.7174965)
obj_obtained= 46.27698(45.55948 + 0.7174965)
N_effective= 22
t_min= 0
t_max= 8.838835
num control points=100.4413
Time for planner algorithm (RMADER - snlopt.optimize(...)): 117.2641ms
Time_needed (line 241, test_nlopt):51ms
N_effective= 22
t_min= 0
t_max= 8.838835
num control points=100.4413
... logging to /home/cminghan/.ros/log/085b948e-1a38-11ee-bc96-00155df263c5/roslaunch-P-D21000977-25849.log
Checking log directory for disk usage. This may take a while.
Press Ctrl-C to interrupt
Done checking log file disk usage. Usage is <1GB.
]2;/home/cminghan/gcopter_ws/src/GCOPTER/gcopter/launch/nlopt_refresh.launch
[1mstarted roslaunch server http://P-D21000977:39059/[0m

SUMMARY
========

PARAMETERS
 * /rosdistro: noetic
 * /rosversion: 1.16.0
 * /test_nlopt/basis: MINVO

NODES
  /
    test_nlopt (gcopter/test_nlopt)

[1mROS_MASTER_URI=http://localhost:11311[0m
]2;/home/cminghan/gcopter_ws/src/GCOPTER/gcopter/launch/nlopt_refresh.launch http://localhost:11311
[1mprocess[test_nlopt-1]: started with pid [25863][0m
[test_nlopt-1] killing on exit
shutting down processing monitor...
... shutting down processing monitor complete
[1mdone[0m
Iteration Number: 23
-----------------------------------------------------
Basis= MINVO
hulls_curves.size()= 0
==============Initializing a SolverNLopt Object===================
t_min= 0
t_max= 8.83883
=========================
initial_state= 
Pos, Vel, Accel, Jerk= -10  10   0 0 0 0 0 0 0 0 0 0
final_state= 
Pos, Vel, Accel, Jerk=  10 -10   0 0 0 0 0 0 0 0 0 0
Calling optimize
Optimizing now...
==============Generating A Star Guess===================
[NL] Running A* from-10  10   0 to  10 -10   0, allowing time = 50 ms
seed:4203137400
=====================Running Octopus Search===================
[A*] Running...
[A*] Max Runtime was reached
[A*] choosing closest path as solution
-------------Waypoint------------
 9.89
-9.89
    0
Count: 19
Time for planner algorithm (RMADER - octopusSolver_ -> run): 57.3ms
[0m[ INFO] [1688977113.867630708]: [NL] A* found a feasible solution![0m
[0m[ INFO] [1688977113.868999657]: [NL] Using the A* guess[0m
The infeasible constraints of the initial Guess
Infeasible Constraints Highlighted in Red
_______________________
Indexes constraints
Obstacles: 0-->4799
Velocity: 4800-->5141
Accel: 5142-->5255
Total number of Constraints: 5336
_______________________
_______________________
Indexes variables
q: 0-->53
n: 54-->1253
d: 1254-->1653
Total number of Variables: 1654
_______________________
[NL] Optimizing now, allowing time = 50ms
[0m[ INFO] [1688977113.921356533]: [NL] Feasible, code=Maxtime_reached[0m
[NL] Feasible Solution found 52 ms 
q[N_]=  9.89 -9.89     0
obj_guess= 46.27698(45.55948 + 0.7174965)
obj_obtained= 46.27698(45.55948 + 0.7174965)
N_effective= 22
t_min= 0
t_max= 8.838835
num control points=100.4413
Time for planner algorithm (RMADER - snlopt.optimize(...)): 117.0642ms
Time_needed (line 241, test_nlopt):51ms
N_effective= 22
t_min= 0
t_max= 8.838835
num control points=100.4413
... logging to /home/cminghan/.ros/log/085b948e-1a38-11ee-bc96-00155df263c5/roslaunch-P-D21000977-25880.log
Checking log directory for disk usage. This may take a while.
Press Ctrl-C to interrupt
Done checking log file disk usage. Usage is <1GB.
]2;/home/cminghan/gcopter_ws/src/GCOPTER/gcopter/launch/nlopt_refresh.launch
[1mstarted roslaunch server http://P-D21000977:41789/[0m

SUMMARY
========

PARAMETERS
 * /rosdistro: noetic
 * /rosversion: 1.16.0
 * /test_nlopt/basis: MINVO

NODES
  /
    test_nlopt (gcopter/test_nlopt)

[1mROS_MASTER_URI=http://localhost:11311[0m
]2;/home/cminghan/gcopter_ws/src/GCOPTER/gcopter/launch/nlopt_refresh.launch http://localhost:11311
[1mprocess[test_nlopt-1]: started with pid [25894][0m
[test_nlopt-1] killing on exit
shutting down processing monitor...
... shutting down processing monitor complete
[1mdone[0m
Iteration Number: 24
-----------------------------------------------------
Basis= MINVO
hulls_curves.size()= 0
==============Initializing a SolverNLopt Object===================
t_min= 0
t_max= 8.83883
=========================
initial_state= 
Pos, Vel, Accel, Jerk= -10  10   0 0 0 0 0 0 0 0 0 0
final_state= 
Pos, Vel, Accel, Jerk=  10 -10   0 0 0 0 0 0 0 0 0 0
Calling optimize
Optimizing now...
==============Generating A Star Guess===================
[NL] Running A* from-10  10   0 to  10 -10   0, allowing time = 50 ms
seed:4203137400
=====================Running Octopus Search===================
[A*] Running...
[A*] Max Runtime was reached
[A*] choosing closest path as solution
-------------Waypoint------------
 9.89
-9.89
    0
Count: 19
Time for planner algorithm (RMADER - octopusSolver_ -> run): 58.1ms
[0m[ INFO] [1688977116.391925150]: [NL] A* found a feasible solution![0m
[0m[ INFO] [1688977116.393051958]: [NL] Using the A* guess[0m
The infeasible constraints of the initial Guess
Infeasible Constraints Highlighted in Red
_______________________
Indexes constraints
Obstacles: 0-->4799
Velocity: 4800-->5141
Accel: 5142-->5255
Total number of Constraints: 5336
_______________________
_______________________
Indexes variables
q: 0-->53
n: 54-->1253
d: 1254-->1653
Total number of Variables: 1654
_______________________
[NL] Optimizing now, allowing time = 50ms
[0m[ INFO] [1688977116.445427197]: [NL] Feasible, code=Maxtime_reached[0m
[NL] Feasible Solution found 52 ms 
q[N_]=  9.89 -9.89     0
obj_guess= 46.27698(45.55948 + 0.7174965)
obj_obtained= 46.27698(45.55948 + 0.7174965)
N_effective= 22
t_min= 0
t_max= 8.838835
num control points=100.4413
Time for planner algorithm (RMADER - snlopt.optimize(...)): 118.2681ms
Time_needed (line 241, test_nlopt):52ms
N_effective= 22
t_min= 0
t_max= 8.838835
num control points=100.4413
... logging to /home/cminghan/.ros/log/085b948e-1a38-11ee-bc96-00155df263c5/roslaunch-P-D21000977-25911.log
Checking log directory for disk usage. This may take a while.
Press Ctrl-C to interrupt
Done checking log file disk usage. Usage is <1GB.
]2;/home/cminghan/gcopter_ws/src/GCOPTER/gcopter/launch/nlopt_refresh.launch
[1mstarted roslaunch server http://P-D21000977:42815/[0m

SUMMARY
========

PARAMETERS
 * /rosdistro: noetic
 * /rosversion: 1.16.0
 * /test_nlopt/basis: MINVO

NODES
  /
    test_nlopt (gcopter/test_nlopt)

[1mROS_MASTER_URI=http://localhost:11311[0m
]2;/home/cminghan/gcopter_ws/src/GCOPTER/gcopter/launch/nlopt_refresh.launch http://localhost:11311
[1mprocess[test_nlopt-1]: started with pid [25925][0m
[test_nlopt-1] killing on exit
shutting down processing monitor...
... shutting down processing monitor complete
[1mdone[0m
Iteration Number: 25
-----------------------------------------------------
Basis= MINVO
hulls_curves.size()= 0
==============Initializing a SolverNLopt Object===================
t_min= 0
t_max= 8.83883
=========================
initial_state= 
Pos, Vel, Accel, Jerk= -10  10   0 0 0 0 0 0 0 0 0 0
final_state= 
Pos, Vel, Accel, Jerk=  10 -10   0 0 0 0 0 0 0 0 0 0
Calling optimize
Optimizing now...
==============Generating A Star Guess===================
[NL] Running A* from-10  10   0 to  10 -10   0, allowing time = 50 ms
seed:4203137400
=====================Running Octopus Search===================
[A*] Running...
[A*] Max Runtime was reached
[A*] choosing closest path as solution
-------------Waypoint------------
 9.89
-9.89
    0
Count: 19
Time for planner algorithm (RMADER - octopusSolver_ -> run): 57.1ms
[0m[ INFO] [1688977118.922052762]: [NL] A* found a feasible solution![0m
[0m[ INFO] [1688977118.923322726]: [NL] Using the A* guess[0m
The infeasible constraints of the initial Guess
Infeasible Constraints Highlighted in Red
_______________________
Indexes constraints
Obstacles: 0-->4799
Velocity: 4800-->5141
Accel: 5142-->5255
Total number of Constraints: 5336
_______________________
_______________________
Indexes variables
q: 0-->53
n: 54-->1253
d: 1254-->1653
Total number of Variables: 1654
_______________________
[NL] Optimizing now, allowing time = 50ms
[0m[ INFO] [1688977118.978012782]: [NL] Feasible, code=Maxtime_reached[0m
[NL] Feasible Solution found 54 ms 
q[N_]=  9.89 -9.89     0
obj_guess= 46.27698(45.55948 + 0.7174965)
obj_obtained= 46.27698(45.55948 + 0.7174965)
N_effective= 22
t_min= 0
t_max= 8.838835
num control points=100.4413
Time for planner algorithm (RMADER - snlopt.optimize(...)): 120.2864ms
Time_needed (line 241, test_nlopt):54ms
N_effective= 22
t_min= 0
t_max= 8.838835
num control points=100.4413
... logging to /home/cminghan/.ros/log/085b948e-1a38-11ee-bc96-00155df263c5/roslaunch-P-D21000977-25943.log
Checking log directory for disk usage. This may take a while.
Press Ctrl-C to interrupt
Done checking log file disk usage. Usage is <1GB.
]2;/home/cminghan/gcopter_ws/src/GCOPTER/gcopter/launch/nlopt_refresh.launch
[1mstarted roslaunch server http://P-D21000977:40683/[0m

SUMMARY
========

PARAMETERS
 * /rosdistro: noetic
 * /rosversion: 1.16.0
 * /test_nlopt/basis: MINVO

NODES
  /
    test_nlopt (gcopter/test_nlopt)

[1mROS_MASTER_URI=http://localhost:11311[0m
]2;/home/cminghan/gcopter_ws/src/GCOPTER/gcopter/launch/nlopt_refresh.launch http://localhost:11311
[1mprocess[test_nlopt-1]: started with pid [25957][0m
[test_nlopt-1] killing on exit
shutting down processing monitor...
... shutting down processing monitor complete
[1mdone[0m
Iteration Number: 26
-----------------------------------------------------
Basis= MINVO
hulls_curves.size()= 0
==============Initializing a SolverNLopt Object===================
t_min= 0
t_max= 8.83883
=========================
initial_state= 
Pos, Vel, Accel, Jerk= -10  10   0 0 0 0 0 0 0 0 0 0
final_state= 
Pos, Vel, Accel, Jerk=  10 -10   0 0 0 0 0 0 0 0 0 0
Calling optimize
Optimizing now...
==============Generating A Star Guess===================
[NL] Running A* from-10  10   0 to  10 -10   0, allowing time = 50 ms
seed:4203137400
=====================Running Octopus Search===================
[A*] Running...
[A*] Max Runtime was reached
[A*] choosing closest path as solution
-------------Waypoint------------
 9.89
-9.89
    0
Count: 19
Time for planner algorithm (RMADER - octopusSolver_ -> run): 57.1ms
[0m[ INFO] [1688977121.334930382]: [NL] A* found a feasible solution![0m
[0m[ INFO] [1688977121.336054599]: [NL] Using the A* guess[0m
The infeasible constraints of the initial Guess
Infeasible Constraints Highlighted in Red
_______________________
Indexes constraints
Obstacles: 0-->4799
Velocity: 4800-->5141
Accel: 5142-->5255
Total number of Constraints: 5336
_______________________
_______________________
Indexes variables
q: 0-->53
n: 54-->1253
d: 1254-->1653
Total number of Variables: 1654
_______________________
[NL] Optimizing now, allowing time = 50ms
[0m[ INFO] [1688977121.389789934]: [NL] Feasible, code=Maxtime_reached[0m
[NL] Feasible Solution found 53 ms 
q[N_]=  9.89 -9.89     0
obj_guess= 46.27698(45.55948 + 0.7174965)
obj_obtained= 46.27698(45.55948 + 0.7174965)
N_effective= 22
t_min= 0
t_max= 8.838835
num control points=100.4413
Time for planner algorithm (RMADER - snlopt.optimize(...)): 118.0482ms
Time_needed (line 241, test_nlopt):53ms
N_effective= 22
t_min= 0
t_max= 8.838835
num control points=100.4413
... logging to /home/cminghan/.ros/log/085b948e-1a38-11ee-bc96-00155df263c5/roslaunch-P-D21000977-25974.log
Checking log directory for disk usage. This may take a while.
Press Ctrl-C to interrupt
Done checking log file disk usage. Usage is <1GB.
]2;/home/cminghan/gcopter_ws/src/GCOPTER/gcopter/launch/nlopt_refresh.launch
[1mstarted roslaunch server http://P-D21000977:33457/[0m

SUMMARY
========

PARAMETERS
 * /rosdistro: noetic
 * /rosversion: 1.16.0
 * /test_nlopt/basis: MINVO

NODES
  /
    test_nlopt (gcopter/test_nlopt)

[1mROS_MASTER_URI=http://localhost:11311[0m
]2;/home/cminghan/gcopter_ws/src/GCOPTER/gcopter/launch/nlopt_refresh.launch http://localhost:11311
[1mprocess[test_nlopt-1]: started with pid [25988][0m
[test_nlopt-1] killing on exit
shutting down processing monitor...
... shutting down processing monitor complete
[1mdone[0m
Iteration Number: 27
-----------------------------------------------------
Basis= MINVO
hulls_curves.size()= 0
==============Initializing a SolverNLopt Object===================
t_min= 0
t_max= 8.83883
=========================
initial_state= 
Pos, Vel, Accel, Jerk= -10  10   0 0 0 0 0 0 0 0 0 0
final_state= 
Pos, Vel, Accel, Jerk=  10 -10   0 0 0 0 0 0 0 0 0 0
Calling optimize
Optimizing now...
==============Generating A Star Guess===================
[NL] Running A* from-10  10   0 to  10 -10   0, allowing time = 50 ms
seed:4203137400
=====================Running Octopus Search===================
[A*] Running...
[A*] Max Runtime was reached
[A*] choosing closest path as solution
-------------Waypoint------------
 9.89
-9.89
    0
Count: 19
Time for planner algorithm (RMADER - octopusSolver_ -> run): 56.9ms
[0m[ INFO] [1688977123.906397773]: [NL] A* found a feasible solution![0m
[0m[ INFO] [1688977123.907398740]: [NL] Using the A* guess[0m
The infeasible constraints of the initial Guess
Infeasible Constraints Highlighted in Red
_______________________
Indexes constraints
Obstacles: 0-->4799
Velocity: 4800-->5141
Accel: 5142-->5255
Total number of Constraints: 5336
_______________________
_______________________
Indexes variables
q: 0-->53
n: 54-->1253
d: 1254-->1653
Total number of Variables: 1654
_______________________
[NL] Optimizing now, allowing time = 50ms
[0m[ INFO] [1688977123.963383142]: [NL] Feasible, code=Maxtime_reached[0m
[NL] Feasible Solution found 55 ms 
q[N_]=  9.89 -9.89     0
obj_guess= 46.27698(45.55948 + 0.7174965)
obj_obtained= 46.27698(45.55948 + 0.7174965)
N_effective= 22
t_min= 0
t_max= 8.838835
num control points=100.4413
Time for planner algorithm (RMADER - snlopt.optimize(...)): 120.0427ms
Time_needed (line 241, test_nlopt):55ms
N_effective= 22
t_min= 0
t_max= 8.838835
num control points=100.4413
... logging to /home/cminghan/.ros/log/085b948e-1a38-11ee-bc96-00155df263c5/roslaunch-P-D21000977-26005.log
Checking log directory for disk usage. This may take a while.
Press Ctrl-C to interrupt
Done checking log file disk usage. Usage is <1GB.
]2;/home/cminghan/gcopter_ws/src/GCOPTER/gcopter/launch/nlopt_refresh.launch
[1mstarted roslaunch server http://P-D21000977:33157/[0m

SUMMARY
========

PARAMETERS
 * /rosdistro: noetic
 * /rosversion: 1.16.0
 * /test_nlopt/basis: MINVO

NODES
  /
    test_nlopt (gcopter/test_nlopt)

[1mROS_MASTER_URI=http://localhost:11311[0m
]2;/home/cminghan/gcopter_ws/src/GCOPTER/gcopter/launch/nlopt_refresh.launch http://localhost:11311
[1mprocess[test_nlopt-1]: started with pid [26019][0m
[test_nlopt-1] killing on exit
shutting down processing monitor...
... shutting down processing monitor complete
[1mdone[0m
Iteration Number: 28
-----------------------------------------------------
Basis= MINVO
hulls_curves.size()= 0
==============Initializing a SolverNLopt Object===================
t_min= 0
t_max= 8.83883
=========================
initial_state= 
Pos, Vel, Accel, Jerk= -10  10   0 0 0 0 0 0 0 0 0 0
final_state= 
Pos, Vel, Accel, Jerk=  10 -10   0 0 0 0 0 0 0 0 0 0
Calling optimize
Optimizing now...
==============Generating A Star Guess===================
[NL] Running A* from-10  10   0 to  10 -10   0, allowing time = 50 ms
seed:4203137400
=====================Running Octopus Search===================
[A*] Running...
[A*] Max Runtime was reached
[A*] choosing closest path as solution
-------------Waypoint------------
 9.89
-9.89
    0
Count: 19
Time for planner algorithm (RMADER - octopusSolver_ -> run): 57.1ms
[0m[ INFO] [1688977126.336567619]: [NL] A* found a feasible solution![0m
[0m[ INFO] [1688977126.337712312]: [NL] Using the A* guess[0m
The infeasible constraints of the initial Guess
Infeasible Constraints Highlighted in Red
_______________________
Indexes constraints
Obstacles: 0-->4799
Velocity: 4800-->5141
Accel: 5142-->5255
Total number of Constraints: 5336
_______________________
_______________________
Indexes variables
q: 0-->53
n: 54-->1253
d: 1254-->1653
Total number of Variables: 1654
_______________________
[NL] Optimizing now, allowing time = 50ms
[0m[ INFO] [1688977126.391654345]: [NL] Feasible, code=Maxtime_reached[0m
[NL] Feasible Solution found 53 ms 
q[N_]=  9.89 -9.89     0
obj_guess= 46.27698(45.55948 + 0.7174965)
obj_obtained= 46.27698(45.55948 + 0.7174965)
N_effective= 22
t_min= 0
t_max= 8.838835
num control points=100.4413
Time for planner algorithm (RMADER - snlopt.optimize(...)): 118.886ms
Time_needed (line 241, test_nlopt):53ms
N_effective= 22
t_min= 0
t_max= 8.838835
num control points=100.4413
... logging to /home/cminghan/.ros/log/085b948e-1a38-11ee-bc96-00155df263c5/roslaunch-P-D21000977-26036.log
Checking log directory for disk usage. This may take a while.
Press Ctrl-C to interrupt
Done checking log file disk usage. Usage is <1GB.
]2;/home/cminghan/gcopter_ws/src/GCOPTER/gcopter/launch/nlopt_refresh.launch
[1mstarted roslaunch server http://P-D21000977:44563/[0m

SUMMARY
========

PARAMETERS
 * /rosdistro: noetic
 * /rosversion: 1.16.0
 * /test_nlopt/basis: MINVO

NODES
  /
    test_nlopt (gcopter/test_nlopt)

[1mROS_MASTER_URI=http://localhost:11311[0m
]2;/home/cminghan/gcopter_ws/src/GCOPTER/gcopter/launch/nlopt_refresh.launch http://localhost:11311
[1mprocess[test_nlopt-1]: started with pid [26050][0m
[test_nlopt-1] killing on exit
shutting down processing monitor...
... shutting down processing monitor complete
[1mdone[0m
Iteration Number: 29
-----------------------------------------------------
Basis= MINVO
hulls_curves.size()= 0
==============Initializing a SolverNLopt Object===================
t_min= 0
t_max= 8.83883
=========================
initial_state= 
Pos, Vel, Accel, Jerk= -10  10   0 0 0 0 0 0 0 0 0 0
final_state= 
Pos, Vel, Accel, Jerk=  10 -10   0 0 0 0 0 0 0 0 0 0
Calling optimize
Optimizing now...
==============Generating A Star Guess===================
[NL] Running A* from-10  10   0 to  10 -10   0, allowing time = 50 ms
seed:4203137400
=====================Running Octopus Search===================
[A*] Running...
[A*] Max Runtime was reached
[A*] choosing closest path as solution
-------------Waypoint------------
 9.89
-9.89
    0
Count: 19
Time for planner algorithm (RMADER - octopusSolver_ -> run): 58.2ms
[0m[ INFO] [1688977128.955759305]: [NL] A* found a feasible solution![0m
[0m[ INFO] [1688977128.957296229]: [NL] Using the A* guess[0m
The infeasible constraints of the initial Guess
Infeasible Constraints Highlighted in Red
_______________________
Indexes constraints
Obstacles: 0-->4799
Velocity: 4800-->5141
Accel: 5142-->5255
Total number of Constraints: 5336
_______________________
_______________________
Indexes variables
q: 0-->53
n: 54-->1253
d: 1254-->1653
Total number of Variables: 1654
_______________________
[NL] Optimizing now, allowing time = 50ms
[0m[ INFO] [1688977129.011520144]: [NL] Feasible, code=Maxtime_reached[0m
[NL] Feasible Solution found 53 ms 
q[N_]=  9.89 -9.89     0
[...]
[0m[ INFO] [1688977169.811718228]: [NL] Using the A* guess[0m
The infeasible constraints of the initial Guess
Infeasible Constraints Highlighted in Red
_______________________
Indexes constraints
Obstacles: 0-->4799
Velocity: 4800-->5141
Accel: 5142-->5255
Total number of Constraints: 5336
_______________________
_______________________
Indexes variables
q: 0-->53
n: 54-->1253
d: 1254-->1653
Total number of Variables: 1654
_______________________
[NL] Optimizing now, allowing time = 50ms
[0m[ INFO] [1688977169.865486263]: [NL] Feasible, code=Maxtime_reached[0m
[NL] Feasible Solution found 53 ms 
q[N_]=  9.89 -9.89     0
obj_guess= 46.27698(45.55948 + 0.7174965)
obj_obtained= 46.27698(45.55948 + 0.7174965)
N_effective= 22
t_min= 0
t_max= 8.838835
num control points=100.4413
Time for planner algorithm (RMADER - snlopt.optimize(...)): 121.9705ms
Time_needed (line 241, test_nlopt):53ms
N_effective= 22
t_min= 0
t_max= 8.838835
num control points=100.4413
... logging to /home/cminghan/.ros/log/085b948e-1a38-11ee-bc96-00155df263c5/roslaunch-P-D21000977-26563.log
Checking log directory for disk usage. This may take a while.
Press Ctrl-C to interrupt
Done checking log file disk usage. Usage is <1GB.
]2;/home/cminghan/gcopter_ws/src/GCOPTER/gcopter/launch/nlopt_refresh.launch
[1mstarted roslaunch server http://P-D21000977:38831/[0m

SUMMARY
========

PARAMETERS
 * /rosdistro: noetic
 * /rosversion: 1.16.0
 * /test_nlopt/basis: MINVO

NODES
  /
    test_nlopt (gcopter/test_nlopt)

[1mROS_MASTER_URI=http://localhost:11311[0m
]2;/home/cminghan/gcopter_ws/src/GCOPTER/gcopter/launch/nlopt_refresh.launch http://localhost:11311
[1mprocess[test_nlopt-1]: started with pid [26577][0m
[test_nlopt-1] killing on exit
shutting down processing monitor...
... shutting down processing monitor complete
[1mdone[0m
Iteration Number: 46
-----------------------------------------------------
Basis= MINVO
hulls_curves.size()= 0
==============Initializing a SolverNLopt Object===================
t_min= 0
t_max= 8.83883
=========================
initial_state= 
Pos, Vel, Accel, Jerk= -10  10   0 0 0 0 0 0 0 0 0 0
final_state= 
Pos, Vel, Accel, Jerk=  10 -10   0 0 0 0 0 0 0 0 0 0
Calling optimize
Optimizing now...
==============Generating A Star Guess===================
[NL] Running A* from-10  10   0 to  10 -10   0, allowing time = 50 ms
seed:4203137400
=====================Running Octopus Search===================
[A*] Running...
[A*] Max Runtime was reached
[A*] choosing closest path as solution
-------------Waypoint------------
 9.89
-9.89
    0
Count: 19
Time for planner algorithm (RMADER - octopusSolver_ -> run): 56.8ms
[0m[ INFO] [1688977172.224880247]: [NL] A* found a feasible solution![0m
[0m[ INFO] [1688977172.225948209]: [NL] Using the A* guess[0m
The infeasible constraints of the initial Guess
Infeasible Constraints Highlighted in Red
_______________________
Indexes constraints
Obstacles: 0-->4799
Velocity: 4800-->5141
Accel: 5142-->5255
Total number of Constraints: 5336
_______________________
_______________________
Indexes variables
q: 0-->53
n: 54-->1253
d: 1254-->1653
Total number of Variables: 1654
_______________________
[NL] Optimizing now, allowing time = 50ms
[0m[ INFO] [1688977172.280290823]: [NL] Feasible, code=Maxtime_reached[0m
[NL] Feasible Solution found 54 ms 
q[N_]=  9.89 -9.89     0
obj_guess= 46.27698(45.55948 + 0.7174965)
obj_obtained= 46.27698(45.55948 + 0.7174965)
N_effective= 22
t_min= 0
t_max= 8.838835
num control points=100.4413
Time for planner algorithm (RMADER - snlopt.optimize(...)): 118.5561ms
Time_needed (line 241, test_nlopt):53ms
N_effective= 22
t_min= 0
t_max= 8.838835
num control points=100.4413
... logging to /home/cminghan/.ros/log/085b948e-1a38-11ee-bc96-00155df263c5/roslaunch-P-D21000977-26594.log
Checking log directory for disk usage. This may take a while.
Press Ctrl-C to interrupt
Done checking log file disk usage. Usage is <1GB.
]2;/home/cminghan/gcopter_ws/src/GCOPTER/gcopter/launch/nlopt_refresh.launch
[1mstarted roslaunch server http://P-D21000977:33725/[0m

SUMMARY
========

PARAMETERS
 * /rosdistro: noetic
 * /rosversion: 1.16.0
 * /test_nlopt/basis: MINVO

NODES
  /
    test_nlopt (gcopter/test_nlopt)

[1mROS_MASTER_URI=http://localhost:11311[0m
]2;/home/cminghan/gcopter_ws/src/GCOPTER/gcopter/launch/nlopt_refresh.launch http://localhost:11311
[1mprocess[test_nlopt-1]: started with pid [26608][0m
[test_nlopt-1] killing on exit
shutting down processing monitor...
... shutting down processing monitor complete
[1mdone[0m
Iteration Number: 47
-----------------------------------------------------
Basis= MINVO
hulls_curves.size()= 0
==============Initializing a SolverNLopt Object===================
t_min= 0
t_max= 8.83883
=========================
initial_state= 
Pos, Vel, Accel, Jerk= -10  10   0 0 0 0 0 0 0 0 0 0
final_state= 
Pos, Vel, Accel, Jerk=  10 -10   0 0 0 0 0 0 0 0 0 0
Calling optimize
Optimizing now...
==============Generating A Star Guess===================
[NL] Running A* from-10  10   0 to  10 -10   0, allowing time = 50 ms
seed:4203137400
=====================Running Octopus Search===================
[A*] Running...
[A*] Max Runtime was reached
[A*] choosing closest path as solution
-------------Waypoint------------
 9.89
-9.89
    0
Count: 19
Time for planner algorithm (RMADER - octopusSolver_ -> run): 60.1ms
[0m[ INFO] [1688977174.770197226]: [NL] A* found a feasible solution![0m
[0m[ INFO] [1688977174.771614649]: [NL] Using the A* guess[0m
The infeasible constraints of the initial Guess
Infeasible Constraints Highlighted in Red
_______________________
Indexes constraints
Obstacles: 0-->4799
Velocity: 4800-->5141
Accel: 5142-->5255
Total number of Constraints: 5336
_______________________
_______________________
Indexes variables
q: 0-->53
n: 54-->1253
d: 1254-->1653
Total number of Variables: 1654
_______________________
[NL] Optimizing now, allowing time = 50ms
[0m[ INFO] [1688977174.827430249]: [NL] Feasible, code=Maxtime_reached[0m
[NL] Feasible Solution found 55 ms 
q[N_]=  9.89 -9.89     0
obj_guess= 46.27698(45.55948 + 0.7174965)
obj_obtained= 46.27698(45.55948 + 0.7174965)
N_effective= 22
t_min= 0
t_max= 8.838835
num control points=100.4413
Time for planner algorithm (RMADER - snlopt.optimize(...)): 123.6979ms
Time_needed (line 241, test_nlopt):55ms
N_effective= 22
t_min= 0
t_max= 8.838835
num control points=100.4413
... logging to /home/cminghan/.ros/log/085b948e-1a38-11ee-bc96-00155df263c5/roslaunch-P-D21000977-26625.log
Checking log directory for disk usage. This may take a while.
Press Ctrl-C to interrupt
Done checking log file disk usage. Usage is <1GB.
]2;/home/cminghan/gcopter_ws/src/GCOPTER/gcopter/launch/nlopt_refresh.launch
[1mstarted roslaunch server http://P-D21000977:41347/[0m

SUMMARY
========

PARAMETERS
 * /rosdistro: noetic
 * /rosversion: 1.16.0
 * /test_nlopt/basis: MINVO

NODES
  /
    test_nlopt (gcopter/test_nlopt)

[1mROS_MASTER_URI=http://localhost:11311[0m
]2;/home/cminghan/gcopter_ws/src/GCOPTER/gcopter/launch/nlopt_refresh.launch http://localhost:11311
[1mprocess[test_nlopt-1]: started with pid [26639][0m
[test_nlopt-1] killing on exit
shutting down processing monitor...
... shutting down processing monitor complete
[1mdone[0m
Iteration Number: 48
-----------------------------------------------------
Basis= MINVO
hulls_curves.size()= 0
==============Initializing a SolverNLopt Object===================
t_min= 0
t_max= 8.83883
=========================
initial_state= 
Pos, Vel, Accel, Jerk= -10  10   0 0 0 0 0 0 0 0 0 0
final_state= 
Pos, Vel, Accel, Jerk=  10 -10   0 0 0 0 0 0 0 0 0 0
Calling optimize
Optimizing now...
==============Generating A Star Guess===================
[NL] Running A* from-10  10   0 to  10 -10   0, allowing time = 50 ms
seed:4203137400
=====================Running Octopus Search===================
[A*] Running...
[A*] Max Runtime was reached
[A*] choosing closest path as solution
-------------Waypoint------------
 9.89
-9.89
    0
Count: 19
Time for planner algorithm (RMADER - octopusSolver_ -> run): 57.1ms
[0m[ INFO] [1688977177.174909405]: [NL] A* found a feasible solution![0m
[0m[ INFO] [1688977177.176289053]: [NL] Using the A* guess[0m
The infeasible constraints of the initial Guess
Infeasible Constraints Highlighted in Red
_______________________
Indexes constraints
Obstacles: 0-->4799
Velocity: 4800-->5141
Accel: 5142-->5255
Total number of Constraints: 5336
_______________________
_______________________
Indexes variables
q: 0-->53
n: 54-->1253
d: 1254-->1653
Total number of Variables: 1654
_______________________
[NL] Optimizing now, allowing time = 50ms
[0m[ INFO] [1688977177.230525944]: [NL] Feasible, code=Maxtime_reached[0m
[NL] Feasible Solution found 53 ms 
q[N_]=  9.89 -9.89     0
obj_guess= 46.27698(45.55948 + 0.7174965)
obj_obtained= 46.27698(45.55948 + 0.7174965)
N_effective= 22
t_min= 0
t_max= 8.838835
num control points=100.4413
Time for planner algorithm (RMADER - snlopt.optimize(...)): 118.9317ms
Time_needed (line 241, test_nlopt):53ms
N_effective= 22
t_min= 0
t_max= 8.838835
num control points=100.4413
... logging to /home/cminghan/.ros/log/085b948e-1a38-11ee-bc96-00155df263c5/roslaunch-P-D21000977-26656.log
Checking log directory for disk usage. This may take a while.
Press Ctrl-C to interrupt
Done checking log file disk usage. Usage is <1GB.
]2;/home/cminghan/gcopter_ws/src/GCOPTER/gcopter/launch/nlopt_refresh.launch
[1mstarted roslaunch server http://P-D21000977:44361/[0m

SUMMARY
========

PARAMETERS
 * /rosdistro: noetic
 * /rosversion: 1.16.0
 * /test_nlopt/basis: MINVO

NODES
  /
    test_nlopt (gcopter/test_nlopt)

[1mROS_MASTER_URI=http://localhost:11311[0m
]2;/home/cminghan/gcopter_ws/src/GCOPTER/gcopter/launch/nlopt_refresh.launch http://localhost:11311
[1mprocess[test_nlopt-1]: started with pid [26670][0m
[test_nlopt-1] killing on exit
shutting down processing monitor...
... shutting down processing monitor complete
[1mdone[0m
Iteration Number: 49
-----------------------------------------------------
Basis= MINVO
hulls_curves.size()= 0
==============Initializing a SolverNLopt Object===================
t_min= 0
t_max= 8.83883
=========================
initial_state= 
Pos, Vel, Accel, Jerk= -10  10   0 0 0 0 0 0 0 0 0 0
final_state= 
Pos, Vel, Accel, Jerk=  10 -10   0 0 0 0 0 0 0 0 0 0
Calling optimize
Optimizing now...
==============Generating A Star Guess===================
[NL] Running A* from-10  10   0 to  10 -10   0, allowing time = 50 ms
seed:4203137400
=====================Running Octopus Search===================
[A*] Running...
[A*] Max Runtime was reached
[A*] choosing closest path as solution
-------------Waypoint------------
 9.89
-9.89
    0
Count: 19
Time for planner algorithm (RMADER - octopusSolver_ -> run): 57.5ms
[0m[ INFO] [1688977179.710963623]: [NL] A* found a feasible solution![0m
[0m[ INFO] [1688977179.712131948]: [NL] Using the A* guess[0m
The infeasible constraints of the initial Guess
Infeasible Constraints Highlighted in Red
_______________________
Indexes constraints
Obstacles: 0-->4799
Velocity: 4800-->5141
Accel: 5142-->5255
Total number of Constraints: 5336
_______________________
_______________________
Indexes variables
q: 0-->53
n: 54-->1253
d: 1254-->1653
Total number of Variables: 1654
_______________________
[NL] Optimizing now, allowing time = 50ms
[0m[ INFO] [1688977179.768171882]: [NL] Feasible, code=Maxtime_reached[0m
[NL] Feasible Solution found 55 ms 
q[N_]=  9.89 -9.89     0
obj_guess= 46.27698(45.55948 + 0.7174965)
obj_obtained= 46.27698(45.55948 + 0.7174965)
N_effective= 22
t_min= 0
t_max= 8.838835
num control points=100.4413
Time for planner algorithm (RMADER - snlopt.optimize(...)): 121.8941ms
Time_needed (line 241, test_nlopt):55ms
N_effective= 22
t_min= 0
t_max= 8.838835
num control points=100.4413
... logging to /home/cminghan/.ros/log/085b948e-1a38-11ee-bc96-00155df263c5/roslaunch-P-D21000977-26687.log
Checking log directory for disk usage. This may take a while.
Press Ctrl-C to interrupt
Done checking log file disk usage. Usage is <1GB.
]2;/home/cminghan/gcopter_ws/src/GCOPTER/gcopter/launch/nlopt_refresh.launch
[1mstarted roslaunch server http://P-D21000977:35265/[0m

SUMMARY
========

PARAMETERS
 * /rosdistro: noetic
 * /rosversion: 1.16.0
 * /test_nlopt/basis: MINVO

NODES
  /
    test_nlopt (gcopter/test_nlopt)

[1mROS_MASTER_URI=http://localhost:11311[0m
]2;/home/cminghan/gcopter_ws/src/GCOPTER/gcopter/launch/nlopt_refresh.launch http://localhost:11311
[1mprocess[test_nlopt-1]: started with pid [26701][0m
[test_nlopt-1] killing on exit
shutting down processing monitor...
... shutting down processing monitor complete
[1mdone[0m
Iteration Number: 50
-----------------------------------------------------
Basis= MINVO
hulls_curves.size()= 0
==============Initializing a SolverNLopt Object===================
t_min= 0
t_max= 8.83883
=========================
initial_state= 
Pos, Vel, Accel, Jerk= -10  10   0 0 0 0 0 0 0 0 0 0
final_state= 
Pos, Vel, Accel, Jerk=  10 -10   0 0 0 0 0 0 0 0 0 0
Calling optimize
Optimizing now...
==============Generating A Star Guess===================
[NL] Running A* from-10  10   0 to  10 -10   0, allowing time = 50 ms
seed:4203137400
=====================Running Octopus Search===================
[A*] Running...
[A*] Max Runtime was reached
[A*] choosing closest path as solution
-------------Waypoint------------
 9.89
-9.89
    0
Count: 19
Time for planner algorithm (RMADER - octopusSolver_ -> run): 57.1ms
[0m[ INFO] [1688977182.317168411]: [NL] A* found a feasible solution![0m
[0m[ INFO] [1688977182.318388012]: [NL] Using the A* guess[0m
The infeasible constraints of the initial Guess
Infeasible Constraints Highlighted in Red
_______________________
Indexes constraints
Obstacles: 0-->4799
Velocity: 4800-->5141
Accel: 5142-->5255
Total number of Constraints: 5336
_______________________
_______________________
Indexes variables
q: 0-->53
n: 54-->1253
d: 1254-->1653
Total number of Variables: 1654
_______________________
[NL] Optimizing now, allowing time = 50ms
[0m[ INFO] [1688977182.370928392]: [NL] Feasible, code=Maxtime_reached[0m
[NL] Feasible Solution found 52 ms 
q[N_]=  9.89 -9.89     0
obj_guess= 46.27698(45.55948 + 0.7174965)
obj_obtained= 46.27698(45.55948 + 0.7174965)
N_effective= 22
t_min= 0
t_max= 8.838835
num control points=100.4413
Time for planner algorithm (RMADER - snlopt.optimize(...)): 118.0913ms
Time_needed (line 241, test_nlopt):52ms
N_effective= 22
t_min= 0
t_max= 8.838835
num control points=100.4413
... logging to /home/cminghan/.ros/log/085b948e-1a38-11ee-bc96-00155df263c5/roslaunch-P-D21000977-26718.log
Checking log directory for disk usage. This may take a while.
Press Ctrl-C to interrupt
Done checking log file disk usage. Usage is <1GB.
]2;/home/cminghan/gcopter_ws/src/GCOPTER/gcopter/launch/nlopt_refresh.launch
[1mstarted roslaunch server http://P-D21000977:46249/[0m

SUMMARY
========

PARAMETERS
 * /rosdistro: noetic
 * /rosversion: 1.16.0
 * /test_nlopt/basis: MINVO

NODES
  /
    test_nlopt (gcopter/test_nlopt)

[1mROS_MASTER_URI=http://localhost:11311[0m
]2;/home/cminghan/gcopter_ws/src/GCOPTER/gcopter/launch/nlopt_refresh.launch http://localhost:11311
[1mprocess[test_nlopt-1]: started with pid [26732][0m
[test_nlopt-1] killing on exit
shutting down processing monitor...
... shutting down processing monitor complete
[1mdone[0m
Iteration Number: 51
-----------------------------------------------------
Basis= MINVO
hulls_curves.size()= 0
==============Initializing a SolverNLopt Object===================
t_min= 0
t_max= 8.83883
=========================
initial_state= 
Pos, Vel, Accel, Jerk= -10  10   0 0 0 0 0 0 0 0 0 0
final_state= 
Pos, Vel, Accel, Jerk=  10 -10   0 0 0 0 0 0 0 0 0 0
Calling optimize
Optimizing now...
==============Generating A Star Guess===================
[NL] Running A* from-10  10   0 to  10 -10   0, allowing time = 50 ms
seed:4203137400
=====================Running Octopus Search===================
[A*] Running...
[A*] Max Runtime was reached
[A*] choosing closest path as solution
-------------Waypoint------------
 9.89
-9.89
    0
Count: 19
Time for planner algorithm (RMADER - octopusSolver_ -> run): 57.2ms
[0m[ INFO] [1688977184.756010398]: [NL] A* found a feasible solution![0m
[0m[ INFO] [1688977184.757414460]: [NL] Using the A* guess[0m
The infeasible constraints of the initial Guess
Infeasible Constraints Highlighted in Red
_______________________
Indexes constraints
Obstacles: 0-->4799
Velocity: 4800-->5141
Accel: 5142-->5255
Total number of Constraints: 5336
_______________________
_______________________
Indexes variables
q: 0-->53
n: 54-->1253
d: 1254-->1653
Total number of Variables: 1654
_______________________
[NL] Optimizing now, allowing time = 50ms
[0m[ INFO] [1688977184.812590391]: [NL] Feasible, code=Maxtime_reached[0m
[NL] Feasible Solution found 54 ms 
q[N_]=  9.89 -9.89     0
obj_guess= 46.27698(45.55948 + 0.7174965)
obj_obtained= 46.27698(45.55948 + 0.7174965)
N_effective= 22
t_min= 0
t_max= 8.838835
num control points=100.4413
Time for planner algorithm (RMADER - snlopt.optimize(...)): 119.7324ms
Time_needed (line 241, test_nlopt):54ms
N_effective= 22
t_min= 0
t_max= 8.838835
num control points=100.4413
... logging to /home/cminghan/.ros/log/085b948e-1a38-11ee-bc96-00155df263c5/roslaunch-P-D21000977-26749.log
Checking log directory for disk usage. This may take a while.
Press Ctrl-C to interrupt
Done checking log file disk usage. Usage is <1GB.
]2;/home/cminghan/gcopter_ws/src/GCOPTER/gcopter/launch/nlopt_refresh.launch
[1mstarted roslaunch server http://P-D21000977:37403/[0m

SUMMARY
========

PARAMETERS
 * /rosdistro: noetic
 * /rosversion: 1.16.0
 * /test_nlopt/basis: MINVO

NODES
  /
    test_nlopt (gcopter/test_nlopt)

[1mROS_MASTER_URI=http://localhost:11311[0m
]2;/home/cminghan/gcopter_ws/src/GCOPTER/gcopter/launch/nlopt_refresh.launch http://localhost:11311
[1mprocess[test_nlopt-1]: started with pid [26763][0m
[test_nlopt-1] killing on exit
shutting down processing monitor...
... shutting down processing monitor complete
[1mdone[0m
killing:
 * /mockamap_node
 * /rosout
 * /rostopic_18396_1688717394306
killed
Finishing at : Mon Jul 10 16:19:47 +08 2023
[0m[ INFO] [1688977053.798594000]: finish: infill 0.001542%[0m
... logging to /home/cminghan/.ros/log/085b948e-1a38-11ee-bc96-00155df263c5/roslaunch-P-D21000977-25166.log
Checking log directory for disk usage. This may take a while.
Press Ctrl-C to interrupt
Done checking log file disk usage. Usage is <1GB.
]2;/home/cminghan/gcopter_ws/src/GCOPTER/gcopter/launch/test_nlopt.launch
[1mstarted roslaunch server http://P-D21000977:44983/[0m

SUMMARY
========

PARAMETERS
 * /mockamap_node/obstacle_number: 20
 * /mockamap_node/resolution: 0.1
 * /mockamap_node/seed: 0
 * /mockamap_node/type: 2
 * /mockamap_node/width_max: 1.0
 * /mockamap_node/width_min: 1.0
 * /mockamap_node/x_length: 50
 * /mockamap_node/y_length: 50
 * /mockamap_node/z_length: 10
 * /rosdistro: noetic
 * /rosversion: 1.16.0
 * /test_nlopt/basis: MINVO

NODES
  /
    mockamap_node (mockamap/mockamap_node)
    test_nlopt (gcopter/test_nlopt)

[1mROS_MASTER_URI=http://localhost:11311[0m
]2;/home/cminghan/gcopter_ws/src/GCOPTER/gcopter/launch/test_nlopt.launch http://localhost:11311
[1mprocess[test_nlopt-1]: started with pid [25181][0m
[1mprocess[mockamap_node-2]: started with pid [25182][0m
[1m[test_nlopt-1] process has finished cleanly
log file: /home/cminghan/.ros/log/085b948e-1a38-11ee-bc96-00155df263c5/test_nlopt-1*.log[0m
[1m[mockamap_node-2] process has finished cleanly
log file: /home/cminghan/.ros/log/085b948e-1a38-11ee-bc96-00155df263c5/mockamap_node-2*.log[0m
all processes on machine have died, roslaunch will exit
shutting down processing monitor...
... shutting down processing monitor complete
[1mdone[0m
