Starting at : Mon Jul 10 17:20:14 +08 2023
-----------------------------------------------------
Setting workspace and sourcing develspace
workspace set up
Running simulation for rmader using nlopt
-----------------------------------------------------
Iteration Number: 0
-----------------------------------------------------
Basis= MINVO
hulls_curves.size()= 0
==============Initializing a SolverNLopt Object===================
t_min= 0
t_max= 8.83883
=========================
initial_state= 
Pos, Vel, Accel, Jerk= -10  10   0 0 0 0 0 0 0 0 0 0
final_state= 
Pos, Vel, Accel, Jerk=  10 -10   0 0 0 0 0 0 0 0 0 0
Calling optimize
Optimizing now...
==============Generating A Star Guess===================
[NL] Running A* from-10  10   0 to  10 -10   0, allowing time = 60 ms
seed:4203137400
=====================Running Octopus Search===================
[A*] Running...
[A*] Max Runtime was reached
[A*] choosing closest path as solution
-------------Waypoint------------
 9.89
-9.89
    0
Count: 19
Time for planner algorithm (RMADER - octopusSolver_ -> run): 67ms
[0m[ INFO] [1688980815.432406241]: [NL] A* found a feasible solution![0m
[0m[ INFO] [1688980815.433672354]: [NL] Using the A* guess[0m
The infeasible constraints of the initial Guess
Infeasible Constraints Highlighted in Red
_______________________
Indexes constraints
Obstacles: 0-->4799
Velocity: 4800-->5141
Accel: 5142-->5255
Total number of Constraints: 5336
_______________________
_______________________
Indexes variables
q: 0-->53
n: 54-->1253
d: 1254-->1653
Total number of Variables: 1654
_______________________
[NL] Optimizing now, allowing time = 60ms
[0m[ INFO] [1688980815.497097331]: [NL] Feasible, code=Maxtime_reached[0m
[NL] Feasible Solution found 63 ms 
q[N_]=  9.89 -9.89     0
obj_guess= 46.27698(45.55948 + 0.7174965)
obj_obtained= 46.27698(45.55948 + 0.7174965)
N_effective= 22
t_min= 0
t_max= 8.838835
num control points=1099.358
Time for planner algorithm (RMADER - snlopt.optimize(...)): 138.1042ms
Time_needed (line 241, test_nlopt):62ms
N_effective= 22
t_min= 0
t_max= 8.838835
num control points=1099.358
Iteration Number: 1
-----------------------------------------------------
Basis= MINVO
hulls_curves.size()= 0
==============Initializing a SolverNLopt Object===================
t_min= 0
t_max= 8.83883
=========================
initial_state= 
Pos, Vel, Accel, Jerk= -10  10   0 0 0 0 0 0 0 0 0 0
final_state= 
Pos, Vel, Accel, Jerk=  10 -10   0 0 0 0 0 0 0 0 0 0
Calling optimize
Optimizing now...
==============Generating A Star Guess===================
[NL] Running A* from-10  10   0 to  10 -10   0, allowing time = 60 ms
seed:4203137400
=====================Running Octopus Search===================
[A*] Running...
[A*] Max Runtime was reached
[A*] choosing closest path as solution
-------------Waypoint------------
 9.89
-9.89
    0
Count: 19
Time for planner algorithm (RMADER - octopusSolver_ -> run): 68.2ms
[0m[ INFO] [1688980816.424827382]: [NL] A* found a feasible solution![0m
[0m[ INFO] [1688980816.426389118]: [NL] Using the A* guess[0m
The infeasible constraints of the initial Guess
Infeasible Constraints Highlighted in Red
_______________________
Indexes constraints
Obstacles: 0-->4799
Velocity: 4800-->5141
Accel: 5142-->5255
Total number of Constraints: 5336
_______________________
_______________________
Indexes variables
q: 0-->53
n: 54-->1253
d: 1254-->1653
Total number of Variables: 1654
_______________________
[NL] Optimizing now, allowing time = 60ms
[0m[ INFO] [1688980816.488031585]: [NL] Feasible, code=Maxtime_reached[0m
[NL] Feasible Solution found 61 ms 
q[N_]=  9.89 -9.89     0
obj_guess= 46.27698(45.55948 + 0.7174965)
obj_obtained= 46.27698(45.55948 + 0.7174965)
N_effective= 22
t_min= 0
t_max= 8.838835
num control points=1099.358
Time for planner algorithm (RMADER - snlopt.optimize(...)): 139.5723ms
Time_needed (line 241, test_nlopt):61ms
N_effective= 22
t_min= 0
t_max= 8.838835
num control points=1099.358
... logging to /home/cminghan/.ros/log/085b948e-1a38-11ee-bc96-00155df263c5/roslaunch-P-D21000977-25490.log
Checking log directory for disk usage. This may take a while.
Press Ctrl-C to interrupt
Done checking log file disk usage. Usage is <1GB.
]2;/home/cminghan/gcopter_ws/src/GCOPTER/gcopter/launch/nlopt_refresh.launch
[1mstarted roslaunch server http://P-D21000977:42429/[0m

SUMMARY
========

PARAMETERS
 * /rosdistro: noetic
 * /rosversion: 1.16.0
 * /test_nlopt/basis: MINVO

NODES
  /
    test_nlopt (gcopter/test_nlopt)

[1mROS_MASTER_URI=http://localhost:11311[0m
]2;/home/cminghan/gcopter_ws/src/GCOPTER/gcopter/launch/nlopt_refresh.launch http://localhost:11311
[1mprocess[test_nlopt-1]: started with pid [25504][0m
[test_nlopt-1] killing on exit
shutting down processing monitor...
... shutting down processing monitor complete
[1mdone[0m
Iteration Number: 2
-----------------------------------------------------
Basis= MINVO
hulls_curves.size()= 0
==============Initializing a SolverNLopt Object===================
t_min= 0
t_max= 8.83883
=========================
initial_state= 
Pos, Vel, Accel, Jerk= -10  10   0 0 0 0 0 0 0 0 0 0
final_state= 
Pos, Vel, Accel, Jerk=  10 -10   0 0 0 0 0 0 0 0 0 0
Calling optimize
Optimizing now...
==============Generating A Star Guess===================
[NL] Running A* from-10  10   0 to  10 -10   0, allowing time = 60 ms
seed:4203137400
=====================Running Octopus Search===================
[A*] Running...
[A*] Max Runtime was reached
[A*] choosing closest path as solution
-------------Waypoint------------
 9.89
-9.89
    0
Count: 19
Time for planner algorithm (RMADER - octopusSolver_ -> run): 67.3ms
[0m[ INFO] [1688980817.936581301]: [NL] A* found a feasible solution![0m
[0m[ INFO] [1688980817.937871511]: [NL] Using the A* guess[0m
The infeasible constraints of the initial Guess
Infeasible Constraints Highlighted in Red
_______________________
Indexes constraints
Obstacles: 0-->4799
Velocity: 4800-->5141
Accel: 5142-->5255
Total number of Constraints: 5336
_______________________
_______________________
Indexes variables
q: 0-->53
n: 54-->1253
d: 1254-->1653
Total number of Variables: 1654
_______________________
[NL] Optimizing now, allowing time = 60ms
[0m[ INFO] [1688980818.003290770]: [NL] Feasible, code=Maxtime_reached[0m
[NL] Feasible Solution found 65 ms 
q[N_]=  9.89 -9.89     0
obj_guess= 46.27698(45.55948 + 0.7174965)
obj_obtained= 46.27698(45.55948 + 0.7174965)
N_effective= 22
t_min= 0
t_max= 8.838835
num control points=1099.358
Time for planner algorithm (RMADER - snlopt.optimize(...)): 140.4391ms
Time_needed (line 241, test_nlopt):65ms
N_effective= 22
t_min= 0
t_max= 8.838835
num control points=1099.358
... logging to /home/cminghan/.ros/log/085b948e-1a38-11ee-bc96-00155df263c5/roslaunch-P-D21000977-25522.log
Checking log directory for disk usage. This may take a while.
Press Ctrl-C to interrupt
Done checking log file disk usage. Usage is <1GB.
]2;/home/cminghan/gcopter_ws/src/GCOPTER/gcopter/launch/nlopt_refresh.launch
[1mstarted roslaunch server http://P-D21000977:45857/[0m

SUMMARY
========

PARAMETERS
 * /rosdistro: noetic
 * /rosversion: 1.16.0
 * /test_nlopt/basis: MINVO

NODES
  /
    test_nlopt (gcopter/test_nlopt)

[1mROS_MASTER_URI=http://localhost:11311[0m
]2;/home/cminghan/gcopter_ws/src/GCOPTER/gcopter/launch/nlopt_refresh.launch http://localhost:11311
[1mprocess[test_nlopt-1]: started with pid [25536][0m
[test_nlopt-1] killing on exit
shutting down processing monitor...
... shutting down processing monitor complete
[1mdone[0m
Iteration Number: 3
-----------------------------------------------------
Basis= MINVO
hulls_curves.size()= 0
==============Initializing a SolverNLopt Object===================
t_min= 0
t_max= 8.83883
=========================
initial_state= 
Pos, Vel, Accel, Jerk= -10  10   0 0 0 0 0 0 0 0 0 0
final_state= 
Pos, Vel, Accel, Jerk=  10 -10   0 0 0 0 0 0 0 0 0 0
Calling optimize
Optimizing now...
==============Generating A Star Guess===================
[NL] Running A* from-10  10   0 to  10 -10   0, allowing time = 60 ms
seed:4203137400
=====================Running Octopus Search===================
[A*] Running...
[A*] Max Runtime was reached
[A*] choosing closest path as solution
-------------Waypoint------------
 9.89
-9.89
    0
Count: 19
Time for planner algorithm (RMADER - octopusSolver_ -> run): 67.2ms
[0m[ INFO] [1688980819.449314052]: [NL] A* found a feasible solution![0m
[0m[ INFO] [1688980819.450342454]: [NL] Using the A* guess[0m
The infeasible constraints of the initial Guess
Infeasible Constraints Highlighted in Red
_______________________
Indexes constraints
Obstacles: 0-->4799
Velocity: 4800-->5141
Accel: 5142-->5255
Total number of Constraints: 5336
_______________________
_______________________
Indexes variables
q: 0-->53
n: 54-->1253
d: 1254-->1653
Total number of Variables: 1654
_______________________
[NL] Optimizing now, allowing time = 60ms
[0m[ INFO] [1688980819.511433890]: [NL] Feasible, code=Maxtime_reached[0m
[NL] Feasible Solution found 60 ms 
q[N_]=  9.89 -9.89     0
obj_guess= 46.27698(45.55948 + 0.7174965)
obj_obtained= 46.27698(45.55948 + 0.7174965)
N_effective= 22
t_min= 0
t_max= 8.838835
num control points=1099.358
Time for planner algorithm (RMADER - snlopt.optimize(...)): 136.0125ms
Time_needed (line 241, test_nlopt):60ms
N_effective= 22
t_min= 0
t_max= 8.838835
num control points=1099.358
... logging to /home/cminghan/.ros/log/085b948e-1a38-11ee-bc96-00155df263c5/roslaunch-P-D21000977-25553.log
Checking log directory for disk usage. This may take a while.
Press Ctrl-C to interrupt
Done checking log file disk usage. Usage is <1GB.
]2;/home/cminghan/gcopter_ws/src/GCOPTER/gcopter/launch/nlopt_refresh.launch
[1mstarted roslaunch server http://P-D21000977:39821/[0m

SUMMARY
========

PARAMETERS
 * /rosdistro: noetic
 * /rosversion: 1.16.0
 * /test_nlopt/basis: MINVO

NODES
  /
    test_nlopt (gcopter/test_nlopt)

[1mROS_MASTER_URI=http://localhost:11311[0m
]2;/home/cminghan/gcopter_ws/src/GCOPTER/gcopter/launch/nlopt_refresh.launch http://localhost:11311
[1mprocess[test_nlopt-1]: started with pid [25567][0m
[test_nlopt-1] killing on exit
shutting down processing monitor...
... shutting down processing monitor complete
[1mdone[0m
Iteration Number: 4
-----------------------------------------------------
Basis= MINVO
hulls_curves.size()= 0
==============Initializing a SolverNLopt Object===================
t_min= 0
t_max= 8.83883
=========================
initial_state= 
Pos, Vel, Accel, Jerk= -10  10   0 0 0 0 0 0 0 0 0 0
final_state= 
Pos, Vel, Accel, Jerk=  10 -10   0 0 0 0 0 0 0 0 0 0
Calling optimize
Optimizing now...
==============Generating A Star Guess===================
[NL] Running A* from-10  10   0 to  10 -10   0, allowing time = 60 ms
seed:4203137400
=====================Running Octopus Search===================
[A*] Running...
[A*] Max Runtime was reached
[A*] choosing closest path as solution
-------------Waypoint------------
 9.89
-9.89
    0
Count: 19
Time for planner algorithm (RMADER - octopusSolver_ -> run): 67.2ms
[0m[ INFO] [1688980820.958345892]: [NL] A* found a feasible solution![0m
[0m[ INFO] [1688980820.959318263]: [NL] Using the A* guess[0m
The infeasible constraints of the initial Guess
Infeasible Constraints Highlighted in Red
_______________________
Indexes constraints
Obstacles: 0-->4799
Velocity: 4800-->5141
Accel: 5142-->5255
Total number of Constraints: 5336
_______________________
_______________________
Indexes variables
q: 0-->53
n: 54-->1253
d: 1254-->1653
Total number of Variables: 1654
_______________________
[NL] Optimizing now, allowing time = 60ms
[0m[ INFO] [1688980821.023326268]: [NL] Feasible, code=Maxtime_reached[0m
[NL] Feasible Solution found 63 ms 
q[N_]=  9.89 -9.89     0
obj_guess= 46.27698(45.55948 + 0.7174965)
obj_obtained= 46.27698(45.55948 + 0.7174965)
N_effective= 22
t_min= 0
t_max= 8.838835
num control points=1099.358
Time for planner algorithm (RMADER - snlopt.optimize(...)): 138.9598ms
Time_needed (line 241, test_nlopt):63ms
N_effective= 22
t_min= 0
t_max= 8.838835
num control points=1099.358
... logging to /home/cminghan/.ros/log/085b948e-1a38-11ee-bc96-00155df263c5/roslaunch-P-D21000977-25584.log
Checking log directory for disk usage. This may take a while.
Press Ctrl-C to interrupt
Done checking log file disk usage. Usage is <1GB.
]2;/home/cminghan/gcopter_ws/src/GCOPTER/gcopter/launch/nlopt_refresh.launch
[1mstarted roslaunch server http://P-D21000977:38693/[0m

SUMMARY
========

PARAMETERS
 * /rosdistro: noetic
 * /rosversion: 1.16.0
 * /test_nlopt/basis: MINVO

NODES
  /
    test_nlopt (gcopter/test_nlopt)

[1mROS_MASTER_URI=http://localhost:11311[0m
]2;/home/cminghan/gcopter_ws/src/GCOPTER/gcopter/launch/nlopt_refresh.launch http://localhost:11311
[1mprocess[test_nlopt-1]: started with pid [25598][0m
[test_nlopt-1] killing on exit
shutting down processing monitor...
... shutting down processing monitor complete
[1mdone[0m
Iteration Number: 5
-----------------------------------------------------
Basis= MINVO
hulls_curves.size()= 0
==============Initializing a SolverNLopt Object===================
t_min= 0
t_max= 8.83883
=========================
initial_state= 
Pos, Vel, Accel, Jerk= -10  10   0 0 0 0 0 0 0 0 0 0
final_state= 
Pos, Vel, Accel, Jerk=  10 -10   0 0 0 0 0 0 0 0 0 0
Calling optimize
Optimizing now...
==============Generating A Star Guess===================
[NL] Running A* from-10  10   0 to  10 -10   0, allowing time = 60 ms
seed:4203137400
=====================Running Octopus Search===================
[A*] Running...
[A*] Max Runtime was reached
[A*] choosing closest path as solution
-------------Waypoint------------
 9.89
-9.89
    0
Count: 19
Time for planner algorithm (RMADER - octopusSolver_ -> run): 67.3ms
[0m[ INFO] [1688980822.465733854]: [NL] A* found a feasible solution![0m
[0m[ INFO] [1688980822.466670661]: [NL] Using the A* guess[0m
The infeasible constraints of the initial Guess
Infeasible Constraints Highlighted in Red
_______________________
Indexes constraints
Obstacles: 0-->4799
Velocity: 4800-->5141
Accel: 5142-->5255
Total number of Constraints: 5336
_______________________
_______________________
Indexes variables
q: 0-->53
n: 54-->1253
d: 1254-->1653
Total number of Variables: 1654
_______________________
[NL] Optimizing now, allowing time = 60ms
[0m[ INFO] [1688980822.532161386]: [NL] Feasible, code=Maxtime_reached[0m
[NL] Feasible Solution found 65 ms 
q[N_]=  9.89 -9.89     0
obj_guess= 46.27698(45.55948 + 0.7174965)
obj_obtained= 46.27698(45.55948 + 0.7174965)
N_effective= 22
t_min= 0
t_max= 8.838835
num control points=1099.358
Time for planner algorithm (RMADER - snlopt.optimize(...)): 140.0114ms
Time_needed (line 241, test_nlopt):65ms
N_effective= 22
t_min= 0
t_max= 8.838835
num control points=1099.358
... logging to /home/cminghan/.ros/log/085b948e-1a38-11ee-bc96-00155df263c5/roslaunch-P-D21000977-25615.log
Checking log directory for disk usage. This may take a while.
Press Ctrl-C to interrupt
Done checking log file disk usage. Usage is <1GB.
]2;/home/cminghan/gcopter_ws/src/GCOPTER/gcopter/launch/nlopt_refresh.launch
[1mstarted roslaunch server http://P-D21000977:37057/[0m

SUMMARY
========

PARAMETERS
 * /rosdistro: noetic
 * /rosversion: 1.16.0
 * /test_nlopt/basis: MINVO

NODES
  /
    test_nlopt (gcopter/test_nlopt)

[1mROS_MASTER_URI=http://localhost:11311[0m
]2;/home/cminghan/gcopter_ws/src/GCOPTER/gcopter/launch/nlopt_refresh.launch http://localhost:11311
[1mprocess[test_nlopt-1]: started with pid [25629][0m
[test_nlopt-1] killing on exit
shutting down processing monitor...
... shutting down processing monitor complete
[1mdone[0m
Iteration Number: 6
-----------------------------------------------------
Basis= MINVO
hulls_curves.size()= 0
==============Initializing a SolverNLopt Object===================
t_min= 0
t_max= 8.83883
=========================
initial_state= 
Pos, Vel, Accel, Jerk= -10  10   0 0 0 0 0 0 0 0 0 0
final_state= 
Pos, Vel, Accel, Jerk=  10 -10   0 0 0 0 0 0 0 0 0 0
Calling optimize
Optimizing now...
==============Generating A Star Guess===================
[NL] Running A* from-10  10   0 to  10 -10   0, allowing time = 60 ms
seed:4203137400
=====================Running Octopus Search===================
[A*] Running...
[A*] Max Runtime was reached
[A*] choosing closest path as solution
-------------Waypoint------------
 9.89
-9.89
    0
Count: 19
Time for planner algorithm (RMADER - octopusSolver_ -> run): 67.1ms
[0m[ INFO] [1688980823.974230101]: [NL] A* found a feasible solution![0m
[0m[ INFO] [1688980823.975292047]: [NL] Using the A* guess[0m
The infeasible constraints of the initial Guess
Infeasible Constraints Highlighted in Red
_______________________
Indexes constraints
Obstacles: 0-->4799
Velocity: 4800-->5141
Accel: 5142-->5255
Total number of Constraints: 5336
_______________________
_______________________
Indexes variables
q: 0-->53
n: 54-->1253
d: 1254-->1653
Total number of Variables: 1654
_______________________
[NL] Optimizing now, allowing time = 60ms
[0m[ INFO] [1688980824.036449413]: [NL] Feasible, code=Maxtime_reached[0m
[NL] Feasible Solution found 60 ms 
q[N_]=  9.89 -9.89     0
obj_guess= 46.27698(45.55948 + 0.7174965)
obj_obtained= 46.27698(45.55948 + 0.7174965)
N_effective= 22
t_min= 0
t_max= 8.838835
num control points=1099.358
Time for planner algorithm (RMADER - snlopt.optimize(...)): 136.4484ms
Time_needed (line 241, test_nlopt):60ms
N_effective= 22
t_min= 0
t_max= 8.838835
num control points=1099.358
... logging to /home/cminghan/.ros/log/085b948e-1a38-11ee-bc96-00155df263c5/roslaunch-P-D21000977-25646.log
Checking log directory for disk usage. This may take a while.
Press Ctrl-C to interrupt
Done checking log file disk usage. Usage is <1GB.
]2;/home/cminghan/gcopter_ws/src/GCOPTER/gcopter/launch/nlopt_refresh.launch
[1mstarted roslaunch server http://P-D21000977:38117/[0m

SUMMARY
========

PARAMETERS
 * /rosdistro: noetic
 * /rosversion: 1.16.0
 * /test_nlopt/basis: MINVO

NODES
  /
    test_nlopt (gcopter/test_nlopt)

[1mROS_MASTER_URI=http://localhost:11311[0m
]2;/home/cminghan/gcopter_ws/src/GCOPTER/gcopter/launch/nlopt_refresh.launch http://localhost:11311
[1mprocess[test_nlopt-1]: started with pid [25660][0m
[test_nlopt-1] killing on exit
shutting down processing monitor...
... shutting down processing monitor complete
[1mdone[0m
Iteration Number: 7
-----------------------------------------------------
Basis= MINVO
hulls_curves.size()= 0
==============Initializing a SolverNLopt Object===================
t_min= 0
t_max= 8.83883
=========================
initial_state= 
Pos, Vel, Accel, Jerk= -10  10   0 0 0 0 0 0 0 0 0 0
final_state= 
Pos, Vel, Accel, Jerk=  10 -10   0 0 0 0 0 0 0 0 0 0
Calling optimize
Optimizing now...
==============Generating A Star Guess===================
[NL] Running A* from-10  10   0 to  10 -10   0, allowing time = 60 ms
seed:4203137400
=====================Running Octopus Search===================
[A*] Running...
[A*] Max Runtime was reached
[A*] choosing closest path as solution
-------------Waypoint------------
 9.89
-9.89
    0
Count: 19
Time for planner algorithm (RMADER - octopusSolver_ -> run): 67.1ms
[0m[ INFO] [1688980825.508033218]: [NL] A* found a feasible solution![0m
[0m[ INFO] [1688980825.508956323]: [NL] Using the A* guess[0m
The infeasible constraints of the initial Guess
Infeasible Constraints Highlighted in Red
_______________________
Indexes constraints
Obstacles: 0-->4799
Velocity: 4800-->5141
Accel: 5142-->5255
Total number of Constraints: 5336
_______________________
_______________________
Indexes variables
q: 0-->53
n: 54-->1253
d: 1254-->1653
Total number of Variables: 1654
_______________________
[NL] Optimizing now, allowing time = 60ms
[0m[ INFO] [1688980825.572658728]: [NL] Feasible, code=Maxtime_reached[0m
[NL] Feasible Solution found 63 ms 
q[N_]=  9.89 -9.89     0
obj_guess= 46.27698(45.55948 + 0.7174965)
obj_obtained= 46.27698(45.55948 + 0.7174965)
N_effective= 22
t_min= 0
t_max= 8.838835
num control points=1099.358
Time for planner algorithm (RMADER - snlopt.optimize(...)): 138.1798ms
Time_needed (line 241, test_nlopt):63ms
N_effective= 22
t_min= 0
t_max= 8.838835
num control points=1099.358
... logging to /home/cminghan/.ros/log/085b948e-1a38-11ee-bc96-00155df263c5/roslaunch-P-D21000977-25677.log
Checking log directory for disk usage. This may take a while.
Press Ctrl-C to interrupt
Done checking log file disk usage. Usage is <1GB.
]2;/home/cminghan/gcopter_ws/src/GCOPTER/gcopter/launch/nlopt_refresh.launch
[1mstarted roslaunch server http://P-D21000977:41243/[0m

SUMMARY
========

PARAMETERS
 * /rosdistro: noetic
 * /rosversion: 1.16.0
 * /test_nlopt/basis: MINVO

NODES
  /
    test_nlopt (gcopter/test_nlopt)

[1mROS_MASTER_URI=http://localhost:11311[0m
]2;/home/cminghan/gcopter_ws/src/GCOPTER/gcopter/launch/nlopt_refresh.launch http://localhost:11311
[1mprocess[test_nlopt-1]: started with pid [25691][0m
[test_nlopt-1] killing on exit
shutting down processing monitor...
... shutting down processing monitor complete
[1mdone[0m
Iteration Number: 8
-----------------------------------------------------
Basis= MINVO
hulls_curves.size()= 0
==============Initializing a SolverNLopt Object===================
t_min= 0
t_max= 8.83883
=========================
initial_state= 
Pos, Vel, Accel, Jerk= -10  10   0 0 0 0 0 0 0 0 0 0
final_state= 
Pos, Vel, Accel, Jerk=  10 -10   0 0 0 0 0 0 0 0 0 0
Calling optimize
Optimizing now...
==============Generating A Star Guess===================
[NL] Running A* from-10  10   0 to  10 -10   0, allowing time = 60 ms
seed:4203137400
=====================Running Octopus Search===================
[A*] Running...
[A*] Max Runtime was reached
[A*] choosing closest path as solution
-------------Waypoint------------
 9.89
-9.89
    0
Count: 19
Time for planner algorithm (RMADER - octopusSolver_ -> run): 67.3ms
[0m[ INFO] [1688980827.054466406]: [NL] A* found a feasible solution![0m
[0m[ INFO] [1688980827.055509681]: [NL] Using the A* guess[0m
The infeasible constraints of the initial Guess
Infeasible Constraints Highlighted in Red
_______________________
Indexes constraints
Obstacles: 0-->4799
Velocity: 4800-->5141
Accel: 5142-->5255
Total number of Constraints: 5336
_______________________
_______________________
Indexes variables
q: 0-->53
n: 54-->1253
d: 1254-->1653
Total number of Variables: 1654
_______________________
[NL] Optimizing now, allowing time = 60ms
[0m[ INFO] [1688980827.116266166]: [NL] Feasible, code=Maxtime_reached[0m
[NL] Feasible Solution found 60 ms 
q[N_]=  9.89 -9.89     0
obj_guess= 46.27698(45.55948 + 0.7174965)
obj_obtained= 46.27698(45.55948 + 0.7174965)
N_effective= 22
t_min= 0
t_max= 8.838835
num control points=1099.358
Time for planner algorithm (RMADER - snlopt.optimize(...)): 136.6319ms
Time_needed (line 241, test_nlopt):60ms
N_effective= 22
t_min= 0
t_max= 8.838835
num control points=1099.358
... logging to /home/cminghan/.ros/log/085b948e-1a38-11ee-bc96-00155df263c5/roslaunch-P-D21000977-25708.log
Checking log directory for disk usage. This may take a while.
Press Ctrl-C to interrupt
Done checking log file disk usage. Usage is <1GB.
]2;/home/cminghan/gcopter_ws/src/GCOPTER/gcopter/launch/nlopt_refresh.launch
[1mstarted roslaunch server http://P-D21000977:36381/[0m

SUMMARY
========

PARAMETERS
 * /rosdistro: noetic
 * /rosversion: 1.16.0
 * /test_nlopt/basis: MINVO

NODES
  /
    test_nlopt (gcopter/test_nlopt)

[1mROS_MASTER_URI=http://localhost:11311[0m
]2;/home/cminghan/gcopter_ws/src/GCOPTER/gcopter/launch/nlopt_refresh.launch http://localhost:11311
[1mprocess[test_nlopt-1]: started with pid [25722][0m
[test_nlopt-1] killing on exit
shutting down processing monitor...
... shutting down processing monitor complete
[1mdone[0m
Iteration Number: 9
-----------------------------------------------------
Basis= MINVO
hulls_curves.size()= 0
==============Initializing a SolverNLopt Object===================
t_min= 0
t_max= 8.83883
=========================
initial_state= 
Pos, Vel, Accel, Jerk= -10  10   0 0 0 0 0 0 0 0 0 0
final_state= 
Pos, Vel, Accel, Jerk=  10 -10   0 0 0 0 0 0 0 0 0 0
Calling optimize
Optimizing now...
==============Generating A Star Guess===================
[NL] Running A* from-10  10   0 to  10 -10   0, allowing time = 60 ms
seed:4203137400
=====================Running Octopus Search===================
[A*] Running...
[A*] Max Runtime was reached
[A*] choosing closest path as solution
-------------Waypoint------------
 9.89
-9.89
    0
Count: 19
Time for planner algorithm (RMADER - octopusSolver_ -> run): 67.4ms
[0m[ INFO] [1688980828.574874979]: [NL] A* found a feasible solution![0m
[0m[ INFO] [1688980828.576144924]: [NL] Using the A* guess[0m
The infeasible constraints of the initial Guess
Infeasible Constraints Highlighted in Red
_______________________
Indexes constraints
Obstacles: 0-->4799
Velocity: 4800-->5141
Accel: 5142-->5255
Total number of Constraints: 5336
_______________________
_______________________
Indexes variables
q: 0-->53
n: 54-->1253
d: 1254-->1653
Total number of Variables: 1654
_______________________
[NL] Optimizing now, allowing time = 60ms
[0m[ INFO] [1688980828.638242297]: [NL] Feasible, code=Maxtime_reached[0m
[NL] Feasible Solution found 61 ms 
q[N_]=  9.89 -9.89     0
obj_guess= 46.27698(45.55948 + 0.7174965)
obj_obtained= 46.27698(45.55948 + 0.7174965)
N_effective= 22
t_min= 0
t_max= 8.838835
num control points=1099.358
Time for planner algorithm (RMADER - snlopt.optimize(...)): 137.1433ms
Time_needed (line 241, test_nlopt):61ms
N_effective= 22
t_min= 0
t_max= 8.838835
num control points=1099.358
... logging to /home/cminghan/.ros/log/085b948e-1a38-11ee-bc96-00155df263c5/roslaunch-P-D21000977-25739.log
Checking log directory for disk usage. This may take a while.
Press Ctrl-C to interrupt
Done checking log file disk usage. Usage is <1GB.
]2;/home/cminghan/gcopter_ws/src/GCOPTER/gcopter/launch/nlopt_refresh.launch
[1mstarted roslaunch server http://P-D21000977:39019/[0m

SUMMARY
========

PARAMETERS
 * /rosdistro: noetic
 * /rosversion: 1.16.0
 * /test_nlopt/basis: MINVO

NODES
  /
    test_nlopt (gcopter/test_nlopt)

[1mROS_MASTER_URI=http://localhost:11311[0m
]2;/home/cminghan/gcopter_ws/src/GCOPTER/gcopter/launch/nlopt_refresh.launch http://localhost:11311
[1mprocess[test_nlopt-1]: started with pid [25753][0m
[test_nlopt-1] killing on exit
shutting down processing monitor...
... shutting down processing monitor complete
[1mdone[0m
Iteration Number: 10
-----------------------------------------------------
Basis= MINVO
hulls_curves.size()= 0
==============Initializing a SolverNLopt Object===================
t_min= 0
t_max= 8.83883
=========================
initial_state= 
Pos, Vel, Accel, Jerk= -10  10   0 0 0 0 0 0 0 0 0 0
final_state= 
Pos, Vel, Accel, Jerk=  10 -10   0 0 0 0 0 0 0 0 0 0
Calling optimize
Optimizing now...
==============Generating A Star Guess===================
[NL] Running A* from-10  10   0 to  10 -10   0, allowing time = 60 ms
seed:4203137400
=====================Running Octopus Search===================
[A*] Running...
[A*] Max Runtime was reached
[A*] choosing closest path as solution
-------------Waypoint------------
 9.89
-9.89
    0
Count: 19
Time for planner algorithm (RMADER - octopusSolver_ -> run): 67ms
[0m[ INFO] [1688980830.084182580]: [NL] A* found a feasible solution![0m
[0m[ INFO] [1688980830.085237375]: [NL] Using the A* guess[0m
The infeasible constraints of the initial Guess
Infeasible Constraints Highlighted in Red
_______________________
Indexes constraints
Obstacles: 0-->4799
Velocity: 4800-->5141
Accel: 5142-->5255
Total number of Constraints: 5336
_______________________
_______________________
Indexes variables
q: 0-->53
n: 54-->1253
d: 1254-->1653
Total number of Variables: 1654
_______________________
[NL] Optimizing now, allowing time = 60ms
[0m[ INFO] [1688980830.148876796]: [NL] Feasible, code=Maxtime_reached[0m
[NL] Feasible Solution found 63 ms 
q[N_]=  9.89 -9.89     0
obj_guess= 46.27698(45.55948 + 0.7174965)
obj_obtained= 46.27698(45.55948 + 0.7174965)
N_effective= 22
t_min= 0
t_max= 8.838835
num control points=1099.358
Time for planner algorithm (RMADER - snlopt.optimize(...)): 138.3148ms
Time_needed (line 241, test_nlopt):63ms
N_effective= 22
t_min= 0
t_max= 8.838835
num control points=1099.358
... logging to /home/cminghan/.ros/log/085b948e-1a38-11ee-bc96-00155df263c5/roslaunch-P-D21000977-25770.log
Checking log directory for disk usage. This may take a while.
Press Ctrl-C to interrupt
Done checking log file disk usage. Usage is <1GB.
]2;/home/cminghan/gcopter_ws/src/GCOPTER/gcopter/launch/nlopt_refresh.launch
[1mstarted roslaunch server http://P-D21000977:42089/[0m

SUMMARY
========

PARAMETERS
 * /rosdistro: noetic
 * /rosversion: 1.16.0
 * /test_nlopt/basis: MINVO

NODES
  /
    test_nlopt (gcopter/test_nlopt)

[1mROS_MASTER_URI=http://localhost:11311[0m
]2;/home/cminghan/gcopter_ws/src/GCOPTER/gcopter/launch/nlopt_refresh.launch http://localhost:11311
[1mprocess[test_nlopt-1]: started with pid [25784][0m
[test_nlopt-1] killing on exit
shutting down processing monitor...
... shutting down processing monitor complete
[1mdone[0m
Iteration Number: 11
-----------------------------------------------------
Basis= MINVO
hulls_curves.size()= 0
==============Initializing a SolverNLopt Object===================
t_min= 0
t_max= 8.83883
=========================
initial_state= 
Pos, Vel, Accel, Jerk= -10  10   0 0 0 0 0 0 0 0 0 0
final_state= 
Pos, Vel, Accel, Jerk=  10 -10   0 0 0 0 0 0 0 0 0 0
Calling optimize
Optimizing now...
==============Generating A Star Guess===================
[NL] Running A* from-10  10   0 to  10 -10   0, allowing time = 60 ms
seed:4203137400
=====================Running Octopus Search===================
[A*] Running...
[A*] Max Runtime was reached
[A*] choosing closest path as solution
-------------Waypoint------------
 9.89
-9.89
    0
Count: 19
Time for planner algorithm (RMADER - octopusSolver_ -> run): 67.1ms
[0m[ INFO] [1688980831.609151443]: [NL] A* found a feasible solution![0m
[0m[ INFO] [1688980831.610177485]: [NL] Using the A* guess[0m
The infeasible constraints of the initial Guess
Infeasible Constraints Highlighted in Red
_______________________
Indexes constraints
Obstacles: 0-->4799
Velocity: 4800-->5141
Accel: 5142-->5255
Total number of Constraints: 5336
_______________________
_______________________
Indexes variables
q: 0-->53
n: 54-->1253
d: 1254-->1653
Total number of Variables: 1654
_______________________
[NL] Optimizing now, allowing time = 60ms
[0m[ INFO] [1688980831.673535532]: [NL] Feasible, code=Maxtime_reached[0m
[NL] Feasible Solution found 63 ms 
q[N_]=  9.89 -9.89     0
obj_guess= 46.27698(45.55948 + 0.7174965)
obj_obtained= 46.27698(45.55948 + 0.7174965)
N_effective= 22
t_min= 0
t_max= 8.838835
num control points=1099.358
Time for planner algorithm (RMADER - snlopt.optimize(...)): 139.0226ms
Time_needed (line 241, test_nlopt):63ms
N_effective= 22
t_min= 0
t_max= 8.838835
num control points=1099.358
... logging to /home/cminghan/.ros/log/085b948e-1a38-11ee-bc96-00155df263c5/roslaunch-P-D21000977-25801.log
Checking log directory for disk usage. This may take a while.
Press Ctrl-C to interrupt
Done checking log file disk usage. Usage is <1GB.
]2;/home/cminghan/gcopter_ws/src/GCOPTER/gcopter/launch/nlopt_refresh.launch
[1mstarted roslaunch server http://P-D21000977:44671/[0m

SUMMARY
========

PARAMETERS
 * /rosdistro: noetic
 * /rosversion: 1.16.0
 * /test_nlopt/basis: MINVO

NODES
  /
    test_nlopt (gcopter/test_nlopt)

[1mROS_MASTER_URI=http://localhost:11311[0m
]2;/home/cminghan/gcopter_ws/src/GCOPTER/gcopter/launch/nlopt_refresh.launch http://localhost:11311
[1mprocess[test_nlopt-1]: started with pid [25815][0m
[test_nlopt-1] killing on exit
shutting down processing monitor...
... shutting down processing monitor complete
[1mdone[0m
Iteration Number: 12
-----------------------------------------------------
Basis= MINVO
hulls_curves.size()= 0
==============Initializing a SolverNLopt Object===================
t_min= 0
t_max= 8.83883
=========================
initial_state= 
Pos, Vel, Accel, Jerk= -10  10   0 0 0 0 0 0 0 0 0 0
final_state= 
Pos, Vel, Accel, Jerk=  10 -10   0 0 0 0 0 0 0 0 0 0
Calling optimize
Optimizing now...
==============Generating A Star Guess===================
[NL] Running A* from-10  10   0 to  10 -10   0, allowing time = 60 ms
seed:4203137400
=====================Running Octopus Search===================
[A*] Running...
[A*] Max Runtime was reached
[A*] choosing closest path as solution
-------------Waypoint------------
 9.89
-9.89
    0
Count: 19
Time for planner algorithm (RMADER - octopusSolver_ -> run): 67.3ms
[0m[ INFO] [1688980833.119800259]: [NL] A* found a feasible solution![0m
[0m[ INFO] [1688980833.120872837]: [NL] Using the A* guess[0m
The infeasible constraints of the initial Guess
Infeasible Constraints Highlighted in Red
_______________________
Indexes constraints
Obstacles: 0-->4799
Velocity: 4800-->5141
Accel: 5142-->5255
Total number of Constraints: 5336
_______________________
_______________________
Indexes variables
q: 0-->53
n: 54-->1253
d: 1254-->1653
Total number of Variables: 1654
_______________________
[NL] Optimizing now, allowing time = 60ms
[0m[ INFO] [1688980833.182770204]: [NL] Feasible, code=Maxtime_reached[0m
[NL] Feasible Solution found 61 ms 
q[N_]=  9.89 -9.89     0
obj_guess= 46.27698(45.55948 + 0.7174965)
obj_obtained= 46.27698(45.55948 + 0.7174965)
N_effective= 22
t_min= 0
t_max= 8.838835
num control points=1099.358
Time for planner algorithm (RMADER - snlopt.optimize(...)): 136.7182ms
Time_needed (line 241, test_nlopt):61ms
N_effective= 22
t_min= 0
t_max= 8.838835
num control points=1099.358
... logging to /home/cminghan/.ros/log/085b948e-1a38-11ee-bc96-00155df263c5/roslaunch-P-D21000977-25832.log
Checking log directory for disk usage. This may take a while.
Press Ctrl-C to interrupt
Done checking log file disk usage. Usage is <1GB.
]2;/home/cminghan/gcopter_ws/src/GCOPTER/gcopter/launch/nlopt_refresh.launch
[1mstarted roslaunch server http://P-D21000977:36809/[0m

SUMMARY
========

PARAMETERS
 * /rosdistro: noetic
 * /rosversion: 1.16.0
 * /test_nlopt/basis: MINVO

NODES
  /
    test_nlopt (gcopter/test_nlopt)

[1mROS_MASTER_URI=http://localhost:11311[0m
]2;/home/cminghan/gcopter_ws/src/GCOPTER/gcopter/launch/nlopt_refresh.launch http://localhost:11311
[1mprocess[test_nlopt-1]: started with pid [25846][0m
[test_nlopt-1] killing on exit
shutting down processing monitor...
... shutting down processing monitor complete
[1mdone[0m
Iteration Number: 13
-----------------------------------------------------
Basis= MINVO
hulls_curves.size()= 0
==============Initializing a SolverNLopt Object===================
t_min= 0
t_max= 8.83883
=========================
initial_state= 
Pos, Vel, Accel, Jerk= -10  10   0 0 0 0 0 0 0 0 0 0
final_state= 
Pos, Vel, Accel, Jerk=  10 -10   0 0 0 0 0 0 0 0 0 0
Calling optimize
Optimizing now...
==============Generating A Star Guess===================
[NL] Running A* from-10  10   0 to  10 -10   0, allowing time = 60 ms
seed:4203137400
=====================Running Octopus Search===================
[A*] Running...
[A*] Max Runtime was reached
[A*] choosing closest path as solution
-------------Waypoint------------
 9.89
-9.89
    0
Count: 19
Time for planner algorithm (RMADER - octopusSolver_ -> run): 67.2ms
[0m[ INFO] [1688980834.732844563]: [NL] A* found a feasible solution![0m
[0m[ INFO] [1688980834.733721506]: [NL] Using the A* guess[0m
The infeasible constraints of the initial Guess
Infeasible Constraints Highlighted in Red
_______________________
Indexes constraints
Obstacles: 0-->4799
Velocity: 4800-->5141
Accel: 5142-->5255
Total number of Constraints: 5336
_______________________
_______________________
Indexes variables
q: 0-->53
n: 54-->1253
d: 1254-->1653
Total number of Variables: 1654
_______________________
[NL] Optimizing now, allowing time = 60ms
[0m[ INFO] [1688980834.797957018]: [NL] Feasible, code=Maxtime_reached[0m
[NL] Feasible Solution found 63 ms 
q[N_]=  9.89 -9.89     0
obj_guess= 46.27698(45.55948 + 0.7174965)
obj_obtained= 46.27698(45.55948 + 0.7174965)
N_effective= 22
t_min= 0
t_max= 8.838835
num control points=1099.358
Time for planner algorithm (RMADER - snlopt.optimize(...)): 138.9954ms
Time_needed (line 241, test_nlopt):63ms
N_effective= 22
t_min= 0
t_max= 8.838835
num control points=1099.358
... logging to /home/cminghan/.ros/log/085b948e-1a38-11ee-bc96-00155df263c5/roslaunch-P-D21000977-25863.log
Checking log directory for disk usage. This may take a while.
Press Ctrl-C to interrupt
Done checking log file disk usage. Usage is <1GB.
]2;/home/cminghan/gcopter_ws/src/GCOPTER/gcopter/launch/nlopt_refresh.launch
[1mstarted roslaunch server http://P-D21000977:34285/[0m

SUMMARY
========

PARAMETERS
 * /rosdistro: noetic
 * /rosversion: 1.16.0
 * /test_nlopt/basis: MINVO

NODES
  /
    test_nlopt (gcopter/test_nlopt)

[1mROS_MASTER_URI=http://localhost:11311[0m
]2;/home/cminghan/gcopter_ws/src/GCOPTER/gcopter/launch/nlopt_refresh.launch http://localhost:11311
[1mprocess[test_nlopt-1]: started with pid [25877][0m
[test_nlopt-1] killing on exit
shutting down processing monitor...
... shutting down processing monitor complete
[1mdone[0m
Iteration Number: 14
-----------------------------------------------------
Basis= MINVO
hulls_curves.size()= 0
==============Initializing a SolverNLopt Object===================
t_min= 0
t_max= 8.83883
=========================
initial_state= 
Pos, Vel, Accel, Jerk= -10  10   0 0 0 0 0 0 0 0 0 0
final_state= 
Pos, Vel, Accel, Jerk=  10 -10   0 0 0 0 0 0 0 0 0 0
Calling optimize
Optimizing now...
==============Generating A Star Guess===================
[NL] Running A* from-10  10   0 to  10 -10   0, allowing time = 60 ms
seed:4203137400
=====================Running Octopus Search===================
[A*] Running...
[A*] Max Runtime was reached
[A*] choosing closest path as solution
-------------Waypoint------------
 9.89
-9.89
    0
Count: 19
Time for planner algorithm (RMADER - octopusSolver_ -> run): 67.1ms
[0m[ INFO] [1688980836.240998947]: [NL] A* found a feasible solution![0m
[0m[ INFO] [1688980836.242011426]: [NL] Using the A* guess[0m
The infeasible constraints of the initial Guess
Infeasible Constraints Highlighted in Red
_______________________
Indexes constraints
Obstacles: 0-->4799
Velocity: 4800-->5141
Accel: 5142-->5255
Total number of Constraints: 5336
_______________________
_______________________
Indexes variables
q: 0-->53
n: 54-->1253
d: 1254-->1653
Total number of Variables: 1654
_______________________
[NL] Optimizing now, allowing time = 60ms
[0m[ INFO] [1688980836.307498817]: [NL] Feasible, code=Maxtime_reached[0m
[NL] Feasible Solution found 65 ms 
q[N_]=  9.89 -9.89     0
obj_guess= 46.27698(45.55948 + 0.7174965)
obj_obtained= 46.27698(45.55948 + 0.7174965)
N_effective= 22
t_min= 0
t_max= 8.838835
num control points=1099.358
Time for planner algorithm (RMADER - snlopt.optimize(...)): 140.4736ms
Time_needed (line 241, test_nlopt):65ms
N_effective= 22
t_min= 0
t_max= 8.838835
num control points=1099.358
... logging to /home/cminghan/.ros/log/085b948e-1a38-11ee-bc96-00155df263c5/roslaunch-P-D21000977-25894.log
Checking log directory for disk usage. This may take a while.
Press Ctrl-C to interrupt
Done checking log file disk usage. Usage is <1GB.
]2;/home/cminghan/gcopter_ws/src/GCOPTER/gcopter/launch/nlopt_refresh.launch
[1mstarted roslaunch server http://P-D21000977:44699/[0m

SUMMARY
========

PARAMETERS
 * /rosdistro: noetic
 * /rosversion: 1.16.0
 * /test_nlopt/basis: MINVO

NODES
  /
    test_nlopt (gcopter/test_nlopt)

[1mROS_MASTER_URI=http://localhost:11311[0m
]2;/home/cminghan/gcopter_ws/src/GCOPTER/gcopter/launch/nlopt_refresh.launch http://localhost:11311
[1mprocess[test_nlopt-1]: started with pid [25908][0m
[test_nlopt-1] killing on exit
shutting down processing monitor...
... shutting down processing monitor complete
[1mdone[0m
Iteration Number: 15
-----------------------------------------------------
Basis= MINVO
hulls_curves.size()= 0
==============Initializing a SolverNLopt Object===================
t_min= 0
t_max= 8.83883
=========================
initial_state= 
Pos, Vel, Accel, Jerk= -10  10   0 0 0 0 0 0 0 0 0 0
final_state= 
Pos, Vel, Accel, Jerk=  10 -10   0 0 0 0 0 0 0 0 0 0
Calling optimize
Optimizing now...
==============Generating A Star Guess===================
[NL] Running A* from-10  10   0 to  10 -10   0, allowing time = 60 ms
seed:4203137400
=====================Running Octopus Search===================
[A*] Running...
[A*] Max Runtime was reached
[A*] choosing closest path as solution
-------------Waypoint------------
 9.89
-9.89
    0
Count: 19
Time for planner algorithm (RMADER - octopusSolver_ -> run): 68.2ms
[0m[ INFO] [1688980837.753244318]: [NL] A* found a feasible solution![0m
[0m[ INFO] [1688980837.754741414]: [NL] Using the A* guess[0m
The infeasible constraints of the initial Guess
Infeasible Constraints Highlighted in Red
_______________________
Indexes constraints
Obstacles: 0-->4799
Velocity: 4800-->5141
Accel: 5142-->5255
Total number of Constraints: 5336
_______________________
_______________________
Indexes variables
q: 0-->53
n: 54-->1253
d: 1254-->1653
Total number of Variables: 1654
_______________________
[NL] Optimizing now, allowing time = 60ms
[0m[ INFO] [1688980837.818622278]: [NL] Feasible, code=Maxtime_reached[0m
[NL] Feasible Solution found 63 ms 
q[N_]=  9.89 -9.89     0
obj_guess= 46.27698(45.55948 + 0.7174965)
obj_obtained= 46.27698(45.55948 + 0.7174965)
N_effective= 22
t_min= 0
t_max= 8.838835
num control points=1099.358
Time for planner algorithm (RMADER - snlopt.optimize(...)): 140.1622ms
Time_needed (line 241, test_nlopt):63ms
N_effective= 22
t_min= 0
t_max= 8.838835
num control points=1099.358
... logging to /home/cminghan/.ros/log/085b948e-1a38-11ee-bc96-00155df263c5/roslaunch-P-D21000977-25925.log
Checking log directory for disk usage. This may take a while.
Press Ctrl-C to interrupt
Done checking log file disk usage. Usage is <1GB.
]2;/home/cminghan/gcopter_ws/src/GCOPTER/gcopter/launch/nlopt_refresh.launch
[1mstarted roslaunch server http://P-D21000977:34227/[0m

SUMMARY
========

PARAMETERS
 * /rosdistro: noetic
 * /rosversion: 1.16.0
 * /test_nlopt/basis: MINVO

NODES
  /
    test_nlopt (gcopter/test_nlopt)

[1mROS_MASTER_URI=http://localhost:11311[0m
]2;/home/cminghan/gcopter_ws/src/GCOPTER/gcopter/launch/nlopt_refresh.launch http://localhost:11311
[1mprocess[test_nlopt-1]: started with pid [25939][0m
[test_nlopt-1] killing on exit
shutting down processing monitor...
... shutting down processing monitor complete
[1mdone[0m
Iteration Number: 16
-----------------------------------------------------
Basis= MINVO
hulls_curves.size()= 0
==============Initializing a SolverNLopt Object===================
t_min= 0
t_max= 8.83883
=========================
initial_state= 
Pos, Vel, Accel, Jerk= -10  10   0 0 0 0 0 0 0 0 0 0
final_state= 
Pos, Vel, Accel, Jerk=  10 -10   0 0 0 0 0 0 0 0 0 0
Calling optimize
Optimizing now...
==============Generating A Star Guess===================
[NL] Running A* from-10  10   0 to  10 -10   0, allowing time = 60 ms
seed:4203137400
=====================Running Octopus Search===================
[A*] Running...
[A*] Max Runtime was reached
[A*] choosing closest path as solution
-------------Waypoint------------
 9.89
-9.89
    0
Count: 19
Time for planner algorithm (RMADER - octopusSolver_ -> run): 67.2ms
[0m[ INFO] [1688980839.257417914]: [NL] A* found a feasible solution![0m
[0m[ INFO] [1688980839.258528962]: [NL] Using the A* guess[0m
The infeasible constraints of the initial Guess
Infeasible Constraints Highlighted in Red
_______________________
Indexes constraints
Obstacles: 0-->4799
Velocity: 4800-->5141
Accel: 5142-->5255
Total number of Constraints: 5336
_______________________
_______________________
Indexes variables
q: 0-->53
n: 54-->1253
d: 1254-->1653
Total number of Variables: 1654
_______________________
[NL] Optimizing now, allowing time = 60ms
[0m[ INFO] [1688980839.321010918]: [NL] Feasible, code=Maxtime_reached[0m
[NL] Feasible Solution found 62 ms 
q[N_]=  9.89 -9.89     0
obj_guess= 46.27698(45.55948 + 0.7174965)
obj_obtained= 46.27698(45.55948 + 0.7174965)
N_effective= 22
t_min= 0
t_max= 8.838835
num control points=1099.358
Time for planner algorithm (RMADER - snlopt.optimize(...)): 137.9037ms
Time_needed (line 241, test_nlopt):62ms
N_effective= 22
t_min= 0
t_max= 8.838835
num control points=1099.358
... logging to /home/cminghan/.ros/log/085b948e-1a38-11ee-bc96-00155df263c5/roslaunch-P-D21000977-25956.log
Checking log directory for disk usage. This may take a while.
Press Ctrl-C to interrupt
Done checking log file disk usage. Usage is <1GB.
]2;/home/cminghan/gcopter_ws/src/GCOPTER/gcopter/launch/nlopt_refresh.launch
[1mstarted roslaunch server http://P-D21000977:43221/[0m

SUMMARY
========

PARAMETERS
 * /rosdistro: noetic
 * /rosversion: 1.16.0
 * /test_nlopt/basis: MINVO

NODES
  /
    test_nlopt (gcopter/test_nlopt)

[1mROS_MASTER_URI=http://localhost:11311[0m
]2;/home/cminghan/gcopter_ws/src/GCOPTER/gcopter/launch/nlopt_refresh.launch http://localhost:11311
[1mprocess[test_nlopt-1]: started with pid [25970][0m
[test_nlopt-1] killing on exit
shutting down processing monitor...
... shutting down processing monitor complete
[1mdone[0m
Iteration Number: 17
-----------------------------------------------------
Basis= MINVO
hulls_curves.size()= 0
==============Initializing a SolverNLopt Object===================
t_min= 0
t_max= 8.83883
=========================
initial_state= 
Pos, Vel, Accel, Jerk= -10  10   0 0 0 0 0 0 0 0 0 0
final_state= 
Pos, Vel, Accel, Jerk=  10 -10   0 0 0 0 0 0 0 0 0 0
Calling optimize
Optimizing now...
==============Generating A Star Guess===================
[NL] Running A* from-10  10   0 to  10 -10   0, allowing time = 60 ms
seed:4203137400
=====================Running Octopus Search===================
[A*] Running...
[A*] Max Runtime was reached
[A*] choosing closest path as solution
-------------Waypoint------------
 9.89
-9.89
    0
Count: 19
Time for planner algorithm (RMADER - octopusSolver_ -> run): 67.6ms
[0m[ INFO] [1688980840.772101482]: [NL] A* found a feasible solution![0m
[0m[ INFO] [1688980840.773071718]: [NL] Using the A* guess[0m
The infeasible constraints of the initial Guess
Infeasible Constraints Highlighted in Red
_______________________
Indexes constraints
Obstacles: 0-->4799
Velocity: 4800-->5141
Accel: 5142-->5255
Total number of Constraints: 5336
_______________________
_______________________
Indexes variables
q: 0-->53
n: 54-->1253
d: 1254-->1653
Total number of Variables: 1654
_______________________
[NL] Optimizing now, allowing time = 60ms
[0m[ INFO] [1688980840.836630688]: [NL] Feasible, code=Maxtime_reached[0m
[NL] Feasible Solution found 63 ms 
q[N_]=  9.89 -9.89     0
obj_guess= 46.27698(45.55948 + 0.7174965)
obj_obtained= 46.27698(45.55948 + 0.7174965)
N_effective= 22
t_min= 0
t_max= 8.838835
num control points=1099.358
Time for planner algorithm (RMADER - snlopt.optimize(...)): 138.6185ms
Time_needed (line 241, test_nlopt):63ms
N_effective= 22
t_min= 0
t_max= 8.838835
num control points=1099.358
... logging to /home/cminghan/.ros/log/085b948e-1a38-11ee-bc96-00155df263c5/roslaunch-P-D21000977-25987.log
Checking log directory for disk usage. This may take a while.
Press Ctrl-C to interrupt
Done checking log file disk usage. Usage is <1GB.
]2;/home/cminghan/gcopter_ws/src/GCOPTER/gcopter/launch/nlopt_refresh.launch
[1mstarted roslaunch server http://P-D21000977:33723/[0m

SUMMARY
========

PARAMETERS
 * /rosdistro: noetic
 * /rosversion: 1.16.0
 * /test_nlopt/basis: MINVO

NODES
  /
    test_nlopt (gcopter/test_nlopt)

[1mROS_MASTER_URI=http://localhost:11311[0m
]2;/home/cminghan/gcopter_ws/src/GCOPTER/gcopter/launch/nlopt_refresh.launch http://localhost:11311
[1mprocess[test_nlopt-1]: started with pid [26001][0m
[test_nlopt-1] killing on exit
shutting down processing monitor...
... shutting down processing monitor complete
[1mdone[0m
Iteration Number: 18
-----------------------------------------------------
Basis= MINVO
hulls_curves.size()= 0
==============Initializing a SolverNLopt Object===================
t_min= 0
t_max= 8.83883
=========================
initial_state= 
Pos, Vel, Accel, Jerk= -10  10   0 0 0 0 0 0 0 0 0 0
final_state= 
Pos, Vel, Accel, Jerk=  10 -10   0 0 0 0 0 0 0 0 0 0
Calling optimize
Optimizing now...
==============Generating A Star Guess===================
[NL] Running A* from-10  10   0 to  10 -10   0, allowing time = 60 ms
seed:4203137400
=====================Running Octopus Search===================
[A*] Running...
[A*] Max Runtime was reached
[A*] choosing closest path as solution
-------------Waypoint------------
 9.89
-9.89
    0
Count: 19
Time for planner algorithm (RMADER - octopusSolver_ -> run): 66.9ms
[0m[ INFO] [1688980842.278037885]: [NL] A* found a feasible solution![0m
[0m[ INFO] [1688980842.279163043]: [NL] Using the A* guess[0m
The infeasible constraints of the initial Guess
Infeasible Constraints Highlighted in Red
_______________________
Indexes constraints
Obstacles: 0-->4799
Velocity: 4800-->5141
Accel: 5142-->5255
Total number of Constraints: 5336
_______________________
_______________________
Indexes variables
q: 0-->53
n: 54-->1253
d: 1254-->1653
Total number of Variables: 1654
_______________________
[NL] Optimizing now, allowing time = 60ms
[0m[ INFO] [1688980842.341513853]: [NL] Feasible, code=Maxtime_reached[0m
[NL] Feasible Solution found 62 ms 
q[N_]=  9.89 -9.89     0
obj_guess= 46.27698(45.55948 + 0.7174965)
obj_obtained= 46.27698(45.55948 + 0.7174965)
N_effective= 22
t_min= 0
t_max= 8.838835
num control points=1099.358
Time for planner algorithm (RMADER - snlopt.optimize(...)): 136.8761ms
Time_needed (line 241, test_nlopt):61ms
N_effective= 22
t_min= 0
t_max= 8.838835
num control points=1099.358
... logging to /home/cminghan/.ros/log/085b948e-1a38-11ee-bc96-00155df263c5/roslaunch-P-D21000977-26018.log
Checking log directory for disk usage. This may take a while.
Press Ctrl-C to interrupt
Done checking log file disk usage. Usage is <1GB.
]2;/home/cminghan/gcopter_ws/src/GCOPTER/gcopter/launch/nlopt_refresh.launch
[1mstarted roslaunch server http://P-D21000977:46861/[0m

SUMMARY
========

PARAMETERS
 * /rosdistro: noetic
 * /rosversion: 1.16.0
 * /test_nlopt/basis: MINVO

NODES
  /
    test_nlopt (gcopter/test_nlopt)

[1mROS_MASTER_URI=http://localhost:11311[0m
]2;/home/cminghan/gcopter_ws/src/GCOPTER/gcopter/launch/nlopt_refresh.launch http://localhost:11311
[1mprocess[test_nlopt-1]: started with pid [26032][0m
[test_nlopt-1] killing on exit
shutting down processing monitor...
... shutting down processing monitor complete
[1mdone[0m
Iteration Number: 19
-----------------------------------------------------
Basis= MINVO
hulls_curves.size()= 0
==============Initializing a SolverNLopt Object===================
t_min= 0
t_max= 8.83883
=========================
initial_state= 
Pos, Vel, Accel, Jerk= -10  10   0 0 0 0 0 0 0 0 0 0
final_state= 
Pos, Vel, Accel, Jerk=  10 -10   0 0 0 0 0 0 0 0 0 0
Calling optimize
Optimizing now...
==============Generating A Star Guess===================
[NL] Running A* from-10  10   0 to  10 -10   0, allowing time = 60 ms
seed:4203137400
=====================Running Octopus Search===================
[A*] Running...
[A*] Max Runtime was reached
[A*] choosing closest path as solution
-------------Waypoint------------
 9.89
-9.89
    0
Count: 19
Time for planner algorithm (RMADER - octopusSolver_ -> run): 67.3ms
[0m[ INFO] [1688980843.794711090]: [NL] A* found a feasible solution![0m
[0m[ INFO] [1688980843.795683713]: [NL] Using the A* guess[0m
The infeasible constraints of the initial Guess
Infeasible Constraints Highlighted in Red
_______________________
Indexes constraints
Obstacles: 0-->4799
Velocity: 4800-->5141
Accel: 5142-->5255
Total number of Constraints: 5336
_______________________
_______________________
Indexes variables
q: 0-->53
n: 54-->1253
d: 1254-->1653
Total number of Variables: 1654
_______________________
[NL] Optimizing now, allowing time = 60ms
[0m[ INFO] [1688980843.857132509]: [NL] Feasible, code=Maxtime_reached[0m
[NL] Feasible Solution found 61 ms 
q[N_]=  9.89 -9.89     0
obj_guess= 46.27698(45.55948 + 0.7174965)
obj_obtained= 46.27698(45.55948 + 0.7174965)
N_effective= 22
t_min= 0
t_max= 8.838835
num control points=1099.358
Time for planner algorithm (RMADER - snlopt.optimize(...)): 136.4297ms
Time_needed (line 241, test_nlopt):61ms
N_effective= 22
t_min= 0
t_max= 8.838835
num control points=1099.358
... logging to /home/cminghan/.ros/log/085b948e-1a38-11ee-bc96-00155df263c5/roslaunch-P-D21000977-26049.log
Checking log directory for disk usage. This may take a while.
Press Ctrl-C to interrupt
Done checking log file disk usage. Usage is <1GB.
]2;/home/cminghan/gcopter_ws/src/GCOPTER/gcopter/launch/nlopt_refresh.launch
[1mstarted roslaunch server http://P-D21000977:37613/[0m

SUMMARY
========

PARAMETERS
 * /rosdistro: noetic
 * /rosversion: 1.16.0
 * /test_nlopt/basis: MINVO

NODES
  /
    test_nlopt (gcopter/test_nlopt)

[1mROS_MASTER_URI=http://localhost:11311[0m
]2;/home/cminghan/gcopter_ws/src/GCOPTER/gcopter/launch/nlopt_refresh.launch http://localhost:11311
[1mprocess[test_nlopt-1]: started with pid [26064][0m
[test_nlopt-1] killing on exit
shutting down processing monitor...
... shutting down processing monitor complete
[1mdone[0m
Iteration Number: 20
-----------------------------------------------------
Basis= MINVO
hulls_curves.size()= 0
==============Initializing a SolverNLopt Object===================
t_min= 0
t_max= 8.83883
=========================
initial_state= 
Pos, Vel, Accel, Jerk= -10  10   0 0 0 0 0 0 0 0 0 0
final_state= 
Pos, Vel, Accel, Jerk=  10 -10   0 0 0 0 0 0 0 0 0 0
Calling optimize
Optimizing now...
==============Generating A Star Guess===================
[NL] Running A* from-10  10   0 to  10 -10   0, allowing time = 60 ms
seed:4203137400
=====================Running Octopus Search===================
[A*] Running...
[A*] Max Runtime was reached
[A*] choosing closest path as solution
-------------Waypoint------------
 9.89
-9.89
    0
Count: 19
Time for planner algorithm (RMADER - octopusSolver_ -> run): 67ms
[0m[ INFO] [1688980845.309205873]: [NL] A* found a feasible solution![0m
[0m[ INFO] [1688980845.310185187]: [NL] Using the A* guess[0m
The infeasible constraints of the initial Guess
Infeasible Constraints Highlighted in Red
_______________________
Indexes constraints
Obstacles: 0-->4799
Velocity: 4800-->5141
Accel: 5142-->5255
Total number of Constraints: 5336
_______________________
_______________________
Indexes variables
q: 0-->53
n: 54-->1253
d: 1254-->1653
Total number of Variables: 1654
_______________________
[NL] Optimizing now, allowing time = 60ms
[0m[ INFO] [1688980845.370895565]: [NL] Feasible, code=Maxtime_reached[0m
[NL] Feasible Solution found 60 ms 
q[N_]=  9.89 -9.89     0
obj_guess= 46.27698(45.55948 + 0.7174965)
obj_obtained= 46.27698(45.55948 + 0.7174965)
N_effective= 22
t_min= 0
t_max= 8.838835
num control points=1099.358
Time for planner algorithm (RMADER - snlopt.optimize(...)): 135.4329ms
Time_needed (line 241, test_nlopt):60ms
N_effective= 22
t_min= 0
t_max= 8.838835
num control points=1099.358
... logging to /home/cminghan/.ros/log/085b948e-1a38-11ee-bc96-00155df263c5/roslaunch-P-D21000977-26081.log
Checking log directory for disk usage. This may take a while.
Press Ctrl-C to interrupt
Done checking log file disk usage. Usage is <1GB.
]2;/home/cminghan/gcopter_ws/src/GCOPTER/gcopter/launch/nlopt_refresh.launch
[1mstarted roslaunch server http://P-D21000977:39499/[0m

SUMMARY
========

PARAMETERS
 * /rosdistro: noetic
 * /rosversion: 1.16.0
 * /test_nlopt/basis: MINVO

NODES
  /
    test_nlopt (gcopter/test_nlopt)

[1mROS_MASTER_URI=http://localhost:11311[0m
]2;/home/cminghan/gcopter_ws/src/GCOPTER/gcopter/launch/nlopt_refresh.launch http://localhost:11311
[1mprocess[test_nlopt-1]: started with pid [26095][0m
[test_nlopt-1] killing on exit
shutting down processing monitor...
... shutting down processing monitor complete
[1mdone[0m
Iteration Number: 21
-----------------------------------------------------
Basis= MINVO
hulls_curves.size()= 0
==============Initializing a SolverNLopt Object===================
t_min= 0
t_max= 8.83883
=========================
initial_state= 
Pos, Vel, Accel, Jerk= -10  10   0 0 0 0 0 0 0 0 0 0
final_state= 
Pos, Vel, Accel, Jerk=  10 -10   0 0 0 0 0 0 0 0 0 0
Calling optimize
Optimizing now...
==============Generating A Star Guess===================
[NL] Running A* from-10  10   0 to  10 -10   0, allowing time = 60 ms
seed:4203137400
=====================Running Octopus Search===================
[A*] Running...
[A*] Max Runtime was reached
[A*] choosing closest path as solution
-------------Waypoint------------
 9.89
-9.89
    0
Count: 19
Time for planner algorithm (RMADER - octopusSolver_ -> run): 67.2ms
[0m[ INFO] [1688980846.827529056]: [NL] A* found a feasible solution![0m
[0m[ INFO] [1688980846.828647727]: [NL] Using the A* guess[0m
The infeasible constraints of the initial Guess
Infeasible Constraints Highlighted in Red
_______________________
Indexes constraints
Obstacles: 0-->4799
Velocity: 4800-->5141
Accel: 5142-->5255
Total number of Constraints: 5336
_______________________
_______________________
Indexes variables
q: 0-->53
n: 54-->1253
d: 1254-->1653
Total number of Variables: 1654
_______________________
[NL] Optimizing now, allowing time = 60ms
[0m[ INFO] [1688980846.892023736]: [NL] Feasible, code=Maxtime_reached[0m
[NL] Feasible Solution found 63 ms 
q[N_]=  9.89 -9.89     0
obj_guess= 46.27698(45.55948 + 0.7174965)
obj_obtained= 46.27698(45.55948 + 0.7174965)
N_effective= 22
t_min= 0
t_max= 8.838835
num control points=1099.358
Time for planner algorithm (RMADER - snlopt.optimize(...)): 138.0746ms
Time_needed (line 241, test_nlopt):63ms
N_effective= 22
t_min= 0
t_max= 8.838835
num control points=1099.358
... logging to /home/cminghan/.ros/log/085b948e-1a38-11ee-bc96-00155df263c5/roslaunch-P-D21000977-26112.log
Checking log directory for disk usage. This may take a while.
Press Ctrl-C to interrupt
Done checking log file disk usage. Usage is <1GB.
]2;/home/cminghan/gcopter_ws/src/GCOPTER/gcopter/launch/nlopt_refresh.launch
[1mstarted roslaunch server http://P-D21000977:38767/[0m

SUMMARY
========

PARAMETERS
 * /rosdistro: noetic
 * /rosversion: 1.16.0
 * /test_nlopt/basis: MINVO

NODES
  /
    test_nlopt (gcopter/test_nlopt)

[1mROS_MASTER_URI=http://localhost:11311[0m
]2;/home/cminghan/gcopter_ws/src/GCOPTER/gcopter/launch/nlopt_refresh.launch http://localhost:11311
[1mprocess[test_nlopt-1]: started with pid [26126][0m
[test_nlopt-1] killing on exit
shutting down processing monitor...
... shutting down processing monitor complete
[1mdone[0m
Iteration Number: 22
-----------------------------------------------------
Basis= MINVO
hulls_curves.size()= 0
==============Initializing a SolverNLopt Object===================
t_min= 0
t_max= 8.83883
=========================
initial_state= 
Pos, Vel, Accel, Jerk= -10  10   0 0 0 0 0 0 0 0 0 0
final_state= 
Pos, Vel, Accel, Jerk=  10 -10   0 0 0 0 0 0 0 0 0 0
Calling optimize
Optimizing now...
==============Generating A Star Guess===================
[NL] Running A* from-10  10   0 to  10 -10   0, allowing time = 60 ms
seed:4203137400
=====================Running Octopus Search===================
[A*] Running...
[A*] Max Runtime was reached
[A*] choosing closest path as solution
-------------Waypoint------------
 9.89
-9.89
    0
Count: 19
Time for planner algorithm (RMADER - octopusSolver_ -> run): 66.9ms
[0m[ INFO] [1688980848.329142486]: [NL] A* found a feasible solution![0m
[0m[ INFO] [1688980848.330379903]: [NL] Using the A* guess[0m
The infeasible constraints of the initial Guess
Infeasible Constraints Highlighted in Red
_______________________
Indexes constraints
Obstacles: 0-->4799
Velocity: 4800-->5141
Accel: 5142-->5255
Total number of Constraints: 5336
_______________________
_______________________
Indexes variables
q: 0-->53
n: 54-->1253
d: 1254-->1653
Total number of Variables: 1654
_______________________
[NL] Optimizing now, allowing time = 60ms
[0m[ INFO] [1688980848.392409543]: [NL] Feasible, code=Maxtime_reached[0m
[NL] Feasible Solution found 61 ms 
q[N_]=  9.89 -9.89     0
obj_guess= 46.27698(45.55948 + 0.7174965)
obj_obtained= 46.27698(45.55948 + 0.7174965)
N_effective= 22
t_min= 0
t_max= 8.838835
num control points=1099.358
Time for planner algorithm (RMADER - snlopt.optimize(...)): 136.709ms
Time_needed (line 241, test_nlopt):61ms
N_effective= 22
t_min= 0
t_max= 8.838835
num control points=1099.358
... logging to /home/cminghan/.ros/log/085b948e-1a38-11ee-bc96-00155df263c5/roslaunch-P-D21000977-26143.log
Checking log directory for disk usage. This may take a while.
Press Ctrl-C to interrupt
Done checking log file disk usage. Usage is <1GB.
]2;/home/cminghan/gcopter_ws/src/GCOPTER/gcopter/launch/nlopt_refresh.launch
[1mstarted roslaunch server http://P-D21000977:38547/[0m

SUMMARY
========

PARAMETERS
 * /rosdistro: noetic
 * /rosversion: 1.16.0
 * /test_nlopt/basis: MINVO

NODES
  /
    test_nlopt (gcopter/test_nlopt)

[1mROS_MASTER_URI=http://localhost:11311[0m
]2;/home/cminghan/gcopter_ws/src/GCOPTER/gcopter/launch/nlopt_refresh.launch http://localhost:11311
[1mprocess[test_nlopt-1]: started with pid [26157][0m
[test_nlopt-1] killing on exit
shutting down processing monitor...
... shutting down processing monitor complete
[1mdone[0m
Iteration Number: 23
-----------------------------------------------------
Basis= MINVO
hulls_curves.size()= 0
==============Initializing a SolverNLopt Object===================
t_min= 0
t_max= 8.83883
=========================
initial_state= 
Pos, Vel, Accel, Jerk= -10  10   0 0 0 0 0 0 0 0 0 0
final_state= 
Pos, Vel, Accel, Jerk=  10 -10   0 0 0 0 0 0 0 0 0 0
Calling optimize
Optimizing now...
==============Generating A Star Guess===================
[NL] Running A* from-10  10   0 to  10 -10   0, allowing time = 60 ms
seed:4203137400
=====================Running Octopus Search===================
[A*] Running...
[A*] Max Runtime was reached
[A*] choosing closest path as solution
-------------Waypoint------------
 9.89
-9.89
    0
Count: 19
Time for planner algorithm (RMADER - octopusSolver_ -> run): 67.1ms
[0m[ INFO] [1688980849.836341522]: [NL] A* found a feasible solution![0m
[0m[ INFO] [1688980849.837347752]: [NL] Using the A* guess[0m
The infeasible constraints of the initial Guess
Infeasible Constraints Highlighted in Red
_______________________
Indexes constraints
Obstacles: 0-->4799
Velocity: 4800-->5141
Accel: 5142-->5255
Total number of Constraints: 5336
_______________________
_______________________
Indexes variables
q: 0-->53
n: 54-->1253
d: 1254-->1653
Total number of Variables: 1654
_______________________
[NL] Optimizing now, allowing time = 60ms
[0m[ INFO] [1688980849.898452877]: [NL] Feasible, code=Maxtime_reached[0m
[NL] Feasible Solution found 60 ms 
q[N_]=  9.89 -9.89     0
obj_guess= 46.27698(45.55948 + 0.7174965)
obj_obtained= 46.27698(45.55948 + 0.7174965)
N_effective= 22
t_min= 0
t_max= 8.838835
num control points=1099.358
Time for planner algorithm (RMADER - snlopt.optimize(...)): 135.5694ms
Time_needed (line 241, test_nlopt):60ms
N_effective= 22
t_min= 0
t_max= 8.838835
num control points=1099.358
... logging to /home/cminghan/.ros/log/085b948e-1a38-11ee-bc96-00155df263c5/roslaunch-P-D21000977-26174.log
Checking log directory for disk usage. This may take a while.
Press Ctrl-C to interrupt
Done checking log file disk usage. Usage is <1GB.
]2;/home/cminghan/gcopter_ws/src/GCOPTER/gcopter/launch/nlopt_refresh.launch
[1mstarted roslaunch server http://P-D21000977:40091/[0m

SUMMARY
========

PARAMETERS
 * /rosdistro: noetic
 * /rosversion: 1.16.0
 * /test_nlopt/basis: MINVO

NODES
  /
    test_nlopt (gcopter/test_nlopt)

[1mROS_MASTER_URI=http://localhost:11311[0m
]2;/home/cminghan/gcopter_ws/src/GCOPTER/gcopter/launch/nlopt_refresh.launch http://localhost:11311
[1mprocess[test_nlopt-1]: started with pid [26188][0m
[test_nlopt-1] killing on exit
shutting down processing monitor...
... shutting down processing monitor complete
[1mdone[0m
Iteration Number: 24
-----------------------------------------------------
Basis= MINVO
hulls_curves.size()= 0
==============Initializing a SolverNLopt Object===================
t_min= 0
t_max= 8.83883
=========================
initial_state= 
Pos, Vel, Accel, Jerk= -10  10   0 0 0 0 0 0 0 0 0 0
final_state= 
Pos, Vel, Accel, Jerk=  10 -10   0 0 0 0 0 0 0 0 0 0
Calling optimize
Optimizing now...
==============Generating A Star Guess===================
[NL] Running A* from-10  10   0 to  10 -10   0, allowing time = 60 ms
seed:4203137400
=====================Running Octopus Search===================
[A*] Running...
[A*] Max Runtime was reached
[A*] choosing closest path as solution
-------------Waypoint------------
 9.89
-9.89
    0
Count: 19
Time for planner algorithm (RMADER - octopusSolver_ -> run): 67.4ms
[0m[ INFO] [1688980851.348071654]: [NL] A* found a feasible solution![0m
[0m[ INFO] [1688980851.349174063]: [NL] Using the A* guess[0m
The infeasible constraints of the initial Guess
Infeasible Constraints Highlighted in Red
_______________________
Indexes constraints
Obstacles: 0-->4799
Velocity: 4800-->5141
Accel: 5142-->5255
Total number of Constraints: 5336
_______________________
_______________________
Indexes variables
q: 0-->53
n: 54-->1253
d: 1254-->1653
Total number of Variables: 1654
_______________________
[NL] Optimizing now, allowing time = 60ms
[0m[ INFO] [1688980851.414164830]: [NL] Feasible, code=Maxtime_reached[0m
[NL] Feasible Solution found 64 ms 
q[N_]=  9.89 -9.89     0
obj_guess= 46.27698(45.55948 + 0.7174965)
obj_obtained= 46.27698(45.55948 + 0.7174965)
N_effective= 22
t_min= 0
t_max= 8.838835
num control points=1099.358
Time for planner algorithm (RMADER - snlopt.optimize(...)): 140.4034ms
Time_needed (line 241, test_nlopt):64ms
N_effective= 22
t_min= 0
t_max= 8.838835
num control points=1099.358
... logging to /home/cminghan/.ros/log/085b948e-1a38-11ee-bc96-00155df263c5/roslaunch-P-D21000977-26205.log
Checking log directory for disk usage. This may take a while.
Press Ctrl-C to interrupt
Done checking log file disk usage. Usage is <1GB.
]2;/home/cminghan/gcopter_ws/src/GCOPTER/gcopter/launch/nlopt_refresh.launch
[1mstarted roslaunch server http://P-D21000977:42399/[0m

SUMMARY
========

PARAMETERS
 * /rosdistro: noetic
 * /rosversion: 1.16.0
 * /test_nlopt/basis: MINVO

NODES
  /
    test_nlopt (gcopter/test_nlopt)

[1mROS_MASTER_URI=http://localhost:11311[0m
]2;/home/cminghan/gcopter_ws/src/GCOPTER/gcopter/launch/nlopt_refresh.launch http://localhost:11311
[1mprocess[test_nlopt-1]: started with pid [26219][0m
[test_nlopt-1] killing on exit
shutting down processing monitor...
... shutting down processing monitor complete
[1mdone[0m
Iteration Number: 25
-----------------------------------------------------
Basis= MINVO
hulls_curves.size()= 0
==============Initializing a SolverNLopt Object===================
t_min= 0
t_max= 8.83883
=========================
initial_state= 
Pos, Vel, Accel, Jerk= -10  10   0 0 0 0 0 0 0 0 0 0
final_state= 
Pos, Vel, Accel, Jerk=  10 -10   0 0 0 0 0 0 0 0 0 0
Calling optimize
Optimizing now...
==============Generating A Star Guess===================
[NL] Running A* from-10  10   0 to  10 -10   0, allowing time = 60 ms
seed:4203137400
=====================Running Octopus Search===================
[A*] Running...
[A*] Max Runtime was reached
[A*] choosing closest path as solution
-------------Waypoint------------
 9.89
-9.89
    0
Count: 19
Time for planner algorithm (RMADER - octopusSolver_ -> run): 67ms
[0m[ INFO] [1688980852.853892260]: [NL] A* found a feasible solution![0m
[0m[ INFO] [1688980852.854978821]: [NL] Using the A* guess[0m
The infeasible constraints of the initial Guess
Infeasible Constraints Highlighted in Red
_______________________
Indexes constraints
Obstacles: 0-->4799
Velocity: 4800-->5141
Accel: 5142-->5255
Total number of Constraints: 5336
_______________________
_______________________
Indexes variables
q: 0-->53
n: 54-->1253
d: 1254-->1653
Total number of Variables: 1654
_______________________
[NL] Optimizing now, allowing time = 60ms
[0m[ INFO] [1688980852.920006231]: [NL] Feasible, code=Maxtime_reached[0m
[NL] Feasible Solution found 64 ms 
q[N_]=  9.89 -9.89     0
obj_guess= 46.27698(45.55948 + 0.7174965)
obj_obtained= 46.27698(45.55948 + 0.7174965)
N_effective= 22
t_min= 0
t_max= 8.838835
num control points=1099.358
Time for planner algorithm (RMADER - snlopt.optimize(...)): 139.4133ms
Time_needed (line 241, test_nlopt):64ms
N_effective= 22
t_min= 0
t_max= 8.838835
num control points=1099.358
... logging to /home/cminghan/.ros/log/085b948e-1a38-11ee-bc96-00155df263c5/roslaunch-P-D21000977-26236.log
Checking log directory for disk usage. This may take a while.
Press Ctrl-C to interrupt
Done checking log file disk usage. Usage is <1GB.
]2;/home/cminghan/gcopter_ws/src/GCOPTER/gcopter/launch/nlopt_refresh.launch
[1mstarted roslaunch server http://P-D21000977:37893/[0m

SUMMARY
========

PARAMETERS
 * /rosdistro: noetic
 * /rosversion: 1.16.0
 * /test_nlopt/basis: MINVO

NODES
  /
    test_nlopt (gcopter/test_nlopt)

[1mROS_MASTER_URI=http://localhost:11311[0m
]2;/home/cminghan/gcopter_ws/src/GCOPTER/gcopter/launch/nlopt_refresh.launch http://localhost:11311
[1mprocess[test_nlopt-1]: started with pid [26250][0m
[test_nlopt-1] killing on exit
shutting down processing monitor...
... shutting down processing monitor complete
[1mdone[0m
Iteration Number: 26
-----------------------------------------------------
Basis= MINVO
hulls_curves.size()= 0
==============Initializing a SolverNLopt Object===================
t_min= 0
t_max= 8.83883
=========================
initial_state= 
Pos, Vel, Accel, Jerk= -10  10   0 0 0 0 0 0 0 0 0 0
final_state= 
Pos, Vel, Accel, Jerk=  10 -10   0 0 0 0 0 0 0 0 0 0
Calling optimize
Optimizing now...
==============Generating A Star Guess===================
[NL] Running A* from-10  10   0 to  10 -10   0, allowing time = 60 ms
seed:4203137400
=====================Running Octopus Search===================
[A*] Running...
[A*] Max Runtime was reached
[A*] choosing closest path as solution
-------------Waypoint------------
 9.89
-9.89
    0
Count: 19
Time for planner algorithm (RMADER - octopusSolver_ -> run): 67.2ms
[0m[ INFO] [1688980854.360777892]: [NL] A* found a feasible solution![0m
[0m[ INFO] [1688980854.361739112]: [NL] Using the A* guess[0m
The infeasible constraints of the initial Guess
Infeasible Constraints Highlighted in Red
_______________________
Indexes constraints
Obstacles: 0-->4799
Velocity: 4800-->5141
Accel: 5142-->5255
Total number of Constraints: 5336
_______________________
_______________________
Indexes variables
q: 0-->53
n: 54-->1253
d: 1254-->1653
Total number of Variables: 1654
_______________________
[NL] Optimizing now, allowing time = 60ms
[0m[ INFO] [1688980854.426406643]: [NL] Feasible, code=Maxtime_reached[0m
[NL] Feasible Solution found 64 ms 
q[N_]=  9.89 -9.89     0
obj_guess= 46.27698(45.55948 + 0.7174965)
obj_obtained= 46.27698(45.55948 + 0.7174965)
N_effective= 22
t_min= 0
t_max= 8.838835
num control points=1099.358
Time for planner algorithm (RMADER - snlopt.optimize(...)): 139.3392ms
Time_needed (line 241, test_nlopt):64ms
N_effective= 22
t_min= 0
t_max= 8.838835
num control points=1099.358
... logging to /home/cminghan/.ros/log/085b948e-1a38-11ee-bc96-00155df263c5/roslaunch-P-D21000977-26267.log
Checking log directory for disk usage. This may take a while.
Press Ctrl-C to interrupt
Done checking log file disk usage. Usage is <1GB.
]2;/home/cminghan/gcopter_ws/src/GCOPTER/gcopter/launch/nlopt_refresh.launch
[1mstarted roslaunch server http://P-D21000977:35165/[0m

SUMMARY
========

PARAMETERS
 * /rosdistro: noetic
 * /rosversion: 1.16.0
 * /test_nlopt/basis: MINVO

NODES
  /
    test_nlopt (gcopter/test_nlopt)

[1mROS_MASTER_URI=http://localhost:11311[0m
]2;/home/cminghan/gcopter_ws/src/GCOPTER/gcopter/launch/nlopt_refresh.launch http://localhost:11311
[1mprocess[test_nlopt-1]: started with pid [26281][0m
[test_nlopt-1] killing on exit
shutting down processing monitor...
... shutting down processing monitor complete
[1mdone[0m
Iteration Number: 27
-----------------------------------------------------
Basis= MINVO
hulls_curves.size()= 0
==============Initializing a SolverNLopt Object===================
t_min= 0
t_max= 8.83883
=========================
initial_state= 
Pos, Vel, Accel, Jerk= -10  10   0 0 0 0 0 0 0 0 0 0
final_state= 
Pos, Vel, Accel, Jerk=  10 -10   0 0 0 0 0 0 0 0 0 0
Calling optimize
Optimizing now...
==============Generating A Star Guess===================
[NL] Running A* from-10  10   0 to  10 -10   0, allowing time = 60 ms
seed:4203137400
=====================Running Octopus Search===================
[A*] Running...
[A*] Max Runtime was reached
[A*] choosing closest path as solution
-------------Waypoint------------
 9.89
-9.89
    0
Count: 19
Time for planner algorithm (RMADER - octopusSolver_ -> run): 67.3ms
[0m[ INFO] [1688980855.996944316]: [NL] A* found a feasible solution![0m
[0m[ INFO] [1688980855.998045627]: [NL] Using the A* guess[0m
The infeasible constraints of the initial Guess
Infeasible Constraints Highlighted in Red
_______________________
Indexes constraints
Obstacles: 0-->4799
Velocity: 4800-->5141
Accel: 5142-->5255
Total number of Constraints: 5336
_______________________
_______________________
Indexes variables
q: 0-->53
n: 54-->1253
d: 1254-->1653
Total number of Variables: 1654
_______________________
[NL] Optimizing now, allowing time = 60ms
[0m[ INFO] [1688980856.061946812]: [NL] Feasible, code=Maxtime_reached[0m
[NL] Feasible Solution found 63 ms 
q[N_]=  9.89 -9.89     0
obj_guess= 46.27698(45.55948 + 0.7174965)
obj_obtained= 46.27698(45.55948 + 0.7174965)
N_effective= 22
t_min= 0
t_max= 8.838835
num control points=1099.358
Time for planner algorithm (RMADER - snlopt.optimize(...)): 140.6953ms
Time_needed (line 241, test_nlopt):63ms
N_effective= 22
t_min= 0
t_max= 8.838835
num control points=1099.358
... logging to /home/cminghan/.ros/log/085b948e-1a38-11ee-bc96-00155df263c5/roslaunch-P-D21000977-26298.log
Checking log directory for disk usage. This may take a while.
Press Ctrl-C to interrupt
Done checking log file disk usage. Usage is <1GB.
]2;/home/cminghan/gcopter_ws/src/GCOPTER/gcopter/launch/nlopt_refresh.launch
[1mstarted roslaunch server http://P-D21000977:43309/[0m

SUMMARY
========

PARAMETERS
 * /rosdistro: noetic
 * /rosversion: 1.16.0
 * /test_nlopt/basis: MINVO

NODES
  /
    test_nlopt (gcopter/test_nlopt)

[1mROS_MASTER_URI=http://localhost:11311[0m
]2;/home/cminghan/gcopter_ws/src/GCOPTER/gcopter/launch/nlopt_refresh.launch http://localhost:11311
[1mprocess[test_nlopt-1]: started with pid [26312][0m
[test_nlopt-1] killing on exit
shutting down processing monitor...
... shutting down processing monitor complete
[1mdone[0m
Iteration Number: 28
-----------------------------------------------------
Basis= MINVO
hulls_curves.size()= 0
==============Initializing a SolverNLopt Object===================
t_min= 0
t_max= 8.83883
=========================
initial_state= 
Pos, Vel, Accel, Jerk= -10  10   0 0 0 0 0 0 0 0 0 0
final_state= 
Pos, Vel, Accel, Jerk=  10 -10   0 0 0 0 0 0 0 0 0 0
Calling optimize
Optimizing now...
==============Generating A Star Guess===================
[NL] Running A* from-10  10   0 to  10 -10   0, allowing time = 60 ms
seed:4203137400
=====================Running Octopus Search===================
[A*] Running...
[A*] Max Runtime was reached
[A*] choosing closest path as solution
-------------Waypoint------------
 9.89
-9.89
    0
Count: 19
Time for planner algorithm (RMADER - octopusSolver_ -> run): 69.1ms
[0m[ INFO] [1688980857.390284417]: [NL] A* found a feasible solution![0m
[0m[ INFO] [1688980857.391608182]: [NL] Using the A* guess[0m
The infeasible constraints of the initial Guess
Infeasible Constraints Highlighted in Red
_______________________
Indexes constraints
Obstacles: 0-->4799
Velocity: 4800-->5141
Accel: 5142-->5255
Total number of Constraints: 5336
_______________________
_______________________
Indexes variables
q: 0-->53
n: 54-->1253
d: 1254-->1653
Total number of Variables: 1654
_______________________
[NL] Optimizing now, allowing time = 60ms
[0m[ INFO] [1688980857.454366253]: [NL] Feasible, code=Maxtime_reached[0m
[NL] Feasible Solution found 62 ms 
q[N_]=  9.89 -9.89     0
obj_guess= 46.27698(45.55948 + 0.7174965)
obj_obtained= 46.27698(45.55948 + 0.7174965)
N_effective= 22
t_min= 0
t_max= 8.838835
num control points=1099.358
Time for planner algorithm (RMADER - snlopt.optimize(...)): 139.796ms
Time_needed (line 241, test_nlopt):62ms
N_effective= 22
t_min= 0
t_max= 8.838835
num control points=1099.358
... logging to /home/cminghan/.ros/log/085b948e-1a38-11ee-bc96-00155df263c5/roslaunch-P-D21000977-26329.log
Checking log directory for disk usage. This may take a while.
Press Ctrl-C to interrupt
Done checking log file disk usage. Usage is <1GB.
]2;/home/cminghan/gcopter_ws/src/GCOPTER/gcopter/launch/nlopt_refresh.launch
[1mstarted roslaunch server http://P-D21000977:45367/[0m

SUMMARY
========

PARAMETERS
 * /rosdistro: noetic
 * /rosversion: 1.16.0
 * /test_nlopt/basis: MINVO

NODES
  /
    test_nlopt (gcopter/test_nlopt)

[1mROS_MASTER_URI=http://localhost:11311[0m
]2;/home/cminghan/gcopter_ws/src/GCOPTER/gcopter/launch/nlopt_refresh.launch http://localhost:11311
[1mprocess[test_nlopt-1]: started with pid [26343][0m
[test_nlopt-1] killing on exit
shutting down processing monitor...
... shutting down processing monitor complete
[1mdone[0m
Iteration Number: 29
-----------------------------------------------------
Basis= MINVO
hulls_curves.size()= 0
==============Initializing a SolverNLopt Object===================
t_min= 0
t_max= 8.83883
=========================
initial_state= 
Pos, Vel, Accel, Jerk= -10  10   0 0 0 0 0 0 0 0 0 0
final_state= 
Pos, Vel, Accel, Jerk=  10 -10   0 0 0 0 0 0 0 0 0 0
Calling optimize
Optimizing now...
==============Generating A Star Guess===================
[NL] Running A* from-10  10   0 to  10 -10   0, allowing time = 60 ms
seed:4203137400
=====================Running Octopus Search===================
[A*] Running...
[A*] Max Runtime was reached
[A*] choosing closest path as solution
-------------Waypoint------------
 9.89
-9.89
    0
Count: 19
Time for planner algorithm (RMADER - octopusSolver_ -> run): 67ms
[0m[ INFO] [1688980858.913214978]: [NL] A* found a feasible solution![0m
[0m[ INFO] [1688980858.914194963]: [NL] Using the A* guess[0m
The infeasible constraints of the initial Guess
Infeasible Constraints Highlighted in Red
_______________________
Indexes constraints
Obstacles: 0-->4799
Velocity: 4800-->5141
Accel: 5142-->5255
Total number of Constraints: 5336
_______________________
_______________________
Indexes variables
q: 0-->53
n: 54-->1253
d: 1254-->1653
Total number of Variables: 1654
_______________________
[NL] Optimizing now, allowing time = 60ms
[0m[ INFO] [1688980858.975443038]: [NL] Feasible, code=Maxtime_reached[0m
[NL] Feasible Solution found 61 ms 
q[N_]=  9.89 -9.89     0
[...]
[0m[ INFO] [1688980883.304856812]: [NL] Using the A* guess[0m
The infeasible constraints of the initial Guess
Infeasible Constraints Highlighted in Red
_______________________
Indexes constraints
Obstacles: 0-->4799
Velocity: 4800-->5141
Accel: 5142-->5255
Total number of Constraints: 5336
_______________________
_______________________
Indexes variables
q: 0-->53
n: 54-->1253
d: 1254-->1653
Total number of Variables: 1654
_______________________
[NL] Optimizing now, allowing time = 60ms
[0m[ INFO] [1688980883.365547970]: [NL] Feasible, code=Maxtime_reached[0m
[NL] Feasible Solution found 60 ms 
q[N_]=  9.89 -9.89     0
obj_guess= 46.27698(45.55948 + 0.7174965)
obj_obtained= 46.27698(45.55948 + 0.7174965)
N_effective= 22
t_min= 0
t_max= 8.838835
num control points=1099.358
Time for planner algorithm (RMADER - snlopt.optimize(...)): 135.1192ms
Time_needed (line 241, test_nlopt):60ms
N_effective= 22
t_min= 0
t_max= 8.838835
num control points=1099.358
... logging to /home/cminghan/.ros/log/085b948e-1a38-11ee-bc96-00155df263c5/roslaunch-P-D21000977-26856.log
Checking log directory for disk usage. This may take a while.
Press Ctrl-C to interrupt
Done checking log file disk usage. Usage is <1GB.
]2;/home/cminghan/gcopter_ws/src/GCOPTER/gcopter/launch/nlopt_refresh.launch
[1mstarted roslaunch server http://P-D21000977:45273/[0m

SUMMARY
========

PARAMETERS
 * /rosdistro: noetic
 * /rosversion: 1.16.0
 * /test_nlopt/basis: MINVO

NODES
  /
    test_nlopt (gcopter/test_nlopt)

[1mROS_MASTER_URI=http://localhost:11311[0m
]2;/home/cminghan/gcopter_ws/src/GCOPTER/gcopter/launch/nlopt_refresh.launch http://localhost:11311
[1mprocess[test_nlopt-1]: started with pid [26870][0m
[test_nlopt-1] killing on exit
shutting down processing monitor...
... shutting down processing monitor complete
[1mdone[0m
Iteration Number: 46
-----------------------------------------------------
Basis= MINVO
hulls_curves.size()= 0
==============Initializing a SolverNLopt Object===================
t_min= 0
t_max= 8.83883
=========================
initial_state= 
Pos, Vel, Accel, Jerk= -10  10   0 0 0 0 0 0 0 0 0 0
final_state= 
Pos, Vel, Accel, Jerk=  10 -10   0 0 0 0 0 0 0 0 0 0
Calling optimize
Optimizing now...
==============Generating A Star Guess===================
[NL] Running A* from-10  10   0 to  10 -10   0, allowing time = 60 ms
seed:4203137400
=====================Running Octopus Search===================
[A*] Running...
[A*] Max Runtime was reached
[A*] choosing closest path as solution
-------------Waypoint------------
 9.89
-9.89
    0
Count: 19
Time for planner algorithm (RMADER - octopusSolver_ -> run): 67.1ms
[0m[ INFO] [1688980884.819295579]: [NL] A* found a feasible solution![0m
[0m[ INFO] [1688980884.820326043]: [NL] Using the A* guess[0m
The infeasible constraints of the initial Guess
Infeasible Constraints Highlighted in Red
_______________________
Indexes constraints
Obstacles: 0-->4799
Velocity: 4800-->5141
Accel: 5142-->5255
Total number of Constraints: 5336
_______________________
_______________________
Indexes variables
q: 0-->53
n: 54-->1253
d: 1254-->1653
Total number of Variables: 1654
_______________________
[NL] Optimizing now, allowing time = 60ms
[0m[ INFO] [1688980884.886707373]: [NL] Feasible, code=Maxtime_reached[0m
[NL] Feasible Solution found 66 ms 
q[N_]=  9.89 -9.89     0
obj_guess= 46.27698(45.55948 + 0.7174965)
obj_obtained= 46.27698(45.55948 + 0.7174965)
N_effective= 22
t_min= 0
t_max= 8.838835
num control points=1099.358
Time for planner algorithm (RMADER - snlopt.optimize(...)): 142.7618ms
Time_needed (line 241, test_nlopt):66ms
N_effective= 22
t_min= 0
t_max= 8.838835
num control points=1099.358
... logging to /home/cminghan/.ros/log/085b948e-1a38-11ee-bc96-00155df263c5/roslaunch-P-D21000977-26887.log
Checking log directory for disk usage. This may take a while.
Press Ctrl-C to interrupt
Done checking log file disk usage. Usage is <1GB.
]2;/home/cminghan/gcopter_ws/src/GCOPTER/gcopter/launch/nlopt_refresh.launch
[1mstarted roslaunch server http://P-D21000977:39059/[0m

SUMMARY
========

PARAMETERS
 * /rosdistro: noetic
 * /rosversion: 1.16.0
 * /test_nlopt/basis: MINVO

NODES
  /
    test_nlopt (gcopter/test_nlopt)

[1mROS_MASTER_URI=http://localhost:11311[0m
]2;/home/cminghan/gcopter_ws/src/GCOPTER/gcopter/launch/nlopt_refresh.launch http://localhost:11311
[1mprocess[test_nlopt-1]: started with pid [26901][0m
[test_nlopt-1] killing on exit
shutting down processing monitor...
... shutting down processing monitor complete
[1mdone[0m
Iteration Number: 47
-----------------------------------------------------
Basis= MINVO
hulls_curves.size()= 0
==============Initializing a SolverNLopt Object===================
t_min= 0
t_max= 8.83883
=========================
initial_state= 
Pos, Vel, Accel, Jerk= -10  10   0 0 0 0 0 0 0 0 0 0
final_state= 
Pos, Vel, Accel, Jerk=  10 -10   0 0 0 0 0 0 0 0 0 0
Calling optimize
Optimizing now...
==============Generating A Star Guess===================
[NL] Running A* from-10  10   0 to  10 -10   0, allowing time = 60 ms
seed:4203137400
=====================Running Octopus Search===================
[A*] Running...
[A*] Max Runtime was reached
[A*] choosing closest path as solution
-------------Waypoint------------
 9.89
-9.89
    0
Count: 19
Time for planner algorithm (RMADER - octopusSolver_ -> run): 66.9ms
[0m[ INFO] [1688980886.319653983]: [NL] A* found a feasible solution![0m
[0m[ INFO] [1688980886.320611915]: [NL] Using the A* guess[0m
The infeasible constraints of the initial Guess
Infeasible Constraints Highlighted in Red
_______________________
Indexes constraints
Obstacles: 0-->4799
Velocity: 4800-->5141
Accel: 5142-->5255
Total number of Constraints: 5336
_______________________
_______________________
Indexes variables
q: 0-->53
n: 54-->1253
d: 1254-->1653
Total number of Variables: 1654
_______________________
[NL] Optimizing now, allowing time = 60ms
[0m[ INFO] [1688980886.387302288]: [NL] Feasible, code=Maxtime_reached[0m
[NL] Feasible Solution found 66 ms 
q[N_]=  9.89 -9.89     0
obj_guess= 46.27698(45.55948 + 0.7174965)
obj_obtained= 46.27698(45.55948 + 0.7174965)
N_effective= 22
t_min= 0
t_max= 8.838835
num control points=1099.358
Time for planner algorithm (RMADER - snlopt.optimize(...)): 141.2421ms
Time_needed (line 241, test_nlopt):66ms
N_effective= 22
t_min= 0
t_max= 8.838835
num control points=1099.358
... logging to /home/cminghan/.ros/log/085b948e-1a38-11ee-bc96-00155df263c5/roslaunch-P-D21000977-26918.log
Checking log directory for disk usage. This may take a while.
Press Ctrl-C to interrupt
Done checking log file disk usage. Usage is <1GB.
]2;/home/cminghan/gcopter_ws/src/GCOPTER/gcopter/launch/nlopt_refresh.launch
[1mstarted roslaunch server http://P-D21000977:39343/[0m

SUMMARY
========

PARAMETERS
 * /rosdistro: noetic
 * /rosversion: 1.16.0
 * /test_nlopt/basis: MINVO

NODES
  /
    test_nlopt (gcopter/test_nlopt)

[1mROS_MASTER_URI=http://localhost:11311[0m
]2;/home/cminghan/gcopter_ws/src/GCOPTER/gcopter/launch/nlopt_refresh.launch http://localhost:11311
[1mprocess[test_nlopt-1]: started with pid [26932][0m
[test_nlopt-1] killing on exit
shutting down processing monitor...
... shutting down processing monitor complete
[1mdone[0m
Iteration Number: 48
-----------------------------------------------------
Basis= MINVO
hulls_curves.size()= 0
==============Initializing a SolverNLopt Object===================
t_min= 0
t_max= 8.83883
=========================
initial_state= 
Pos, Vel, Accel, Jerk= -10  10   0 0 0 0 0 0 0 0 0 0
final_state= 
Pos, Vel, Accel, Jerk=  10 -10   0 0 0 0 0 0 0 0 0 0
Calling optimize
Optimizing now...
==============Generating A Star Guess===================
[NL] Running A* from-10  10   0 to  10 -10   0, allowing time = 60 ms
seed:4203137400
=====================Running Octopus Search===================
[A*] Running...
[A*] Max Runtime was reached
[A*] choosing closest path as solution
-------------Waypoint------------
 9.89
-9.89
    0
Count: 19
Time for planner algorithm (RMADER - octopusSolver_ -> run): 67.5ms
[0m[ INFO] [1688980887.827974615]: [NL] A* found a feasible solution![0m
[0m[ INFO] [1688980887.829237111]: [NL] Using the A* guess[0m
The infeasible constraints of the initial Guess
Infeasible Constraints Highlighted in Red
_______________________
Indexes constraints
Obstacles: 0-->4799
Velocity: 4800-->5141
Accel: 5142-->5255
Total number of Constraints: 5336
_______________________
_______________________
Indexes variables
q: 0-->53
n: 54-->1253
d: 1254-->1653
Total number of Variables: 1654
_______________________
[NL] Optimizing now, allowing time = 60ms
[0m[ INFO] [1688980887.895174266]: [NL] Feasible, code=Maxtime_reached[0m
[NL] Feasible Solution found 65 ms 
q[N_]=  9.89 -9.89     0
obj_guess= 46.27698(45.55948 + 0.7174965)
obj_obtained= 46.27698(45.55948 + 0.7174965)
N_effective= 22
t_min= 0
t_max= 8.838835
num control points=1099.358
Time for planner algorithm (RMADER - snlopt.optimize(...)): 141.1635ms
Time_needed (line 241, test_nlopt):65ms
N_effective= 22
t_min= 0
t_max= 8.838835
num control points=1099.358
... logging to /home/cminghan/.ros/log/085b948e-1a38-11ee-bc96-00155df263c5/roslaunch-P-D21000977-26949.log
Checking log directory for disk usage. This may take a while.
Press Ctrl-C to interrupt
Done checking log file disk usage. Usage is <1GB.
]2;/home/cminghan/gcopter_ws/src/GCOPTER/gcopter/launch/nlopt_refresh.launch
[1mstarted roslaunch server http://P-D21000977:45681/[0m

SUMMARY
========

PARAMETERS
 * /rosdistro: noetic
 * /rosversion: 1.16.0
 * /test_nlopt/basis: MINVO

NODES
  /
    test_nlopt (gcopter/test_nlopt)

[1mROS_MASTER_URI=http://localhost:11311[0m
]2;/home/cminghan/gcopter_ws/src/GCOPTER/gcopter/launch/nlopt_refresh.launch http://localhost:11311
[1mprocess[test_nlopt-1]: started with pid [26963][0m
[test_nlopt-1] killing on exit
shutting down processing monitor...
... shutting down processing monitor complete
[1mdone[0m
Iteration Number: 49
-----------------------------------------------------
Basis= MINVO
hulls_curves.size()= 0
==============Initializing a SolverNLopt Object===================
t_min= 0
t_max= 8.83883
=========================
initial_state= 
Pos, Vel, Accel, Jerk= -10  10   0 0 0 0 0 0 0 0 0 0
final_state= 
Pos, Vel, Accel, Jerk=  10 -10   0 0 0 0 0 0 0 0 0 0
Calling optimize
Optimizing now...
==============Generating A Star Guess===================
[NL] Running A* from-10  10   0 to  10 -10   0, allowing time = 60 ms
seed:4203137400
=====================Running Octopus Search===================
[A*] Running...
[A*] Max Runtime was reached
[A*] choosing closest path as solution
-------------Waypoint------------
 9.89
-9.89
    0
Count: 19
Time for planner algorithm (RMADER - octopusSolver_ -> run): 67.4ms
[0m[ INFO] [1688980889.337642126]: [NL] A* found a feasible solution![0m
[0m[ INFO] [1688980889.338738260]: [NL] Using the A* guess[0m
The infeasible constraints of the initial Guess
Infeasible Constraints Highlighted in Red
_______________________
Indexes constraints
Obstacles: 0-->4799
Velocity: 4800-->5141
Accel: 5142-->5255
Total number of Constraints: 5336
_______________________
_______________________
Indexes variables
q: 0-->53
n: 54-->1253
d: 1254-->1653
Total number of Variables: 1654
_______________________
[NL] Optimizing now, allowing time = 60ms
[0m[ INFO] [1688980889.403557002]: [NL] Feasible, code=Maxtime_reached[0m
[NL] Feasible Solution found 64 ms 
q[N_]=  9.89 -9.89     0
obj_guess= 46.27698(45.55948 + 0.7174965)
obj_obtained= 46.27698(45.55948 + 0.7174965)
N_effective= 22
t_min= 0
t_max= 8.838835
num control points=1099.358
Time for planner algorithm (RMADER - snlopt.optimize(...)): 140.1936ms
Time_needed (line 241, test_nlopt):64ms
N_effective= 22
t_min= 0
t_max= 8.838835
num control points=1099.358
... logging to /home/cminghan/.ros/log/085b948e-1a38-11ee-bc96-00155df263c5/roslaunch-P-D21000977-26980.log
Checking log directory for disk usage. This may take a while.
Press Ctrl-C to interrupt
Done checking log file disk usage. Usage is <1GB.
]2;/home/cminghan/gcopter_ws/src/GCOPTER/gcopter/launch/nlopt_refresh.launch
[1mstarted roslaunch server http://P-D21000977:38783/[0m

SUMMARY
========

PARAMETERS
 * /rosdistro: noetic
 * /rosversion: 1.16.0
 * /test_nlopt/basis: MINVO

NODES
  /
    test_nlopt (gcopter/test_nlopt)

[1mROS_MASTER_URI=http://localhost:11311[0m
]2;/home/cminghan/gcopter_ws/src/GCOPTER/gcopter/launch/nlopt_refresh.launch http://localhost:11311
[1mprocess[test_nlopt-1]: started with pid [26994][0m
[test_nlopt-1] killing on exit
shutting down processing monitor...
... shutting down processing monitor complete
[1mdone[0m
Iteration Number: 50
-----------------------------------------------------
Basis= MINVO
hulls_curves.size()= 0
==============Initializing a SolverNLopt Object===================
t_min= 0
t_max= 8.83883
=========================
initial_state= 
Pos, Vel, Accel, Jerk= -10  10   0 0 0 0 0 0 0 0 0 0
final_state= 
Pos, Vel, Accel, Jerk=  10 -10   0 0 0 0 0 0 0 0 0 0
Calling optimize
Optimizing now...
==============Generating A Star Guess===================
[NL] Running A* from-10  10   0 to  10 -10   0, allowing time = 60 ms
seed:4203137400
=====================Running Octopus Search===================
[A*] Running...
[A*] Max Runtime was reached
[A*] choosing closest path as solution
-------------Waypoint------------
 9.89
-9.89
    0
Count: 19
Time for planner algorithm (RMADER - octopusSolver_ -> run): 67.3ms
[0m[ INFO] [1688980890.857330895]: [NL] A* found a feasible solution![0m
[0m[ INFO] [1688980890.858569813]: [NL] Using the A* guess[0m
The infeasible constraints of the initial Guess
Infeasible Constraints Highlighted in Red
_______________________
Indexes constraints
Obstacles: 0-->4799
Velocity: 4800-->5141
Accel: 5142-->5255
Total number of Constraints: 5336
_______________________
_______________________
Indexes variables
q: 0-->53
n: 54-->1253
d: 1254-->1653
Total number of Variables: 1654
_______________________
[NL] Optimizing now, allowing time = 60ms
[0m[ INFO] [1688980890.925421996]: [NL] Feasible, code=Maxtime_reached[0m
[NL] Feasible Solution found 66 ms 
q[N_]=  9.89 -9.89     0
obj_guess= 46.27698(45.55948 + 0.7174965)
obj_obtained= 46.27698(45.55948 + 0.7174965)
N_effective= 22
t_min= 0
t_max= 8.838835
num control points=1099.358
Time for planner algorithm (RMADER - snlopt.optimize(...)): 142.149ms
Time_needed (line 241, test_nlopt):66ms
N_effective= 22
t_min= 0
t_max= 8.838835
num control points=1099.358
... logging to /home/cminghan/.ros/log/085b948e-1a38-11ee-bc96-00155df263c5/roslaunch-P-D21000977-27011.log
Checking log directory for disk usage. This may take a while.
Press Ctrl-C to interrupt
Done checking log file disk usage. Usage is <1GB.
]2;/home/cminghan/gcopter_ws/src/GCOPTER/gcopter/launch/nlopt_refresh.launch
[1mstarted roslaunch server http://P-D21000977:37753/[0m

SUMMARY
========

PARAMETERS
 * /rosdistro: noetic
 * /rosversion: 1.16.0
 * /test_nlopt/basis: MINVO

NODES
  /
    test_nlopt (gcopter/test_nlopt)

[1mROS_MASTER_URI=http://localhost:11311[0m
]2;/home/cminghan/gcopter_ws/src/GCOPTER/gcopter/launch/nlopt_refresh.launch http://localhost:11311
[1mprocess[test_nlopt-1]: started with pid [27025][0m
[test_nlopt-1] killing on exit
shutting down processing monitor...
... shutting down processing monitor complete
[1mdone[0m
Iteration Number: 51
-----------------------------------------------------
Basis= MINVO
hulls_curves.size()= 0
==============Initializing a SolverNLopt Object===================
t_min= 0
t_max= 8.83883
=========================
initial_state= 
Pos, Vel, Accel, Jerk= -10  10   0 0 0 0 0 0 0 0 0 0
final_state= 
Pos, Vel, Accel, Jerk=  10 -10   0 0 0 0 0 0 0 0 0 0
Calling optimize
Optimizing now...
==============Generating A Star Guess===================
[NL] Running A* from-10  10   0 to  10 -10   0, allowing time = 60 ms
seed:4203137400
=====================Running Octopus Search===================
[A*] Running...
[A*] Max Runtime was reached
[A*] choosing closest path as solution
-------------Waypoint------------
 9.89
-9.89
    0
Count: 19
Time for planner algorithm (RMADER - octopusSolver_ -> run): 67.1ms
[0m[ INFO] [1688980892.347515113]: [NL] A* found a feasible solution![0m
[0m[ INFO] [1688980892.348507203]: [NL] Using the A* guess[0m
The infeasible constraints of the initial Guess
Infeasible Constraints Highlighted in Red
_______________________
Indexes constraints
Obstacles: 0-->4799
Velocity: 4800-->5141
Accel: 5142-->5255
Total number of Constraints: 5336
_______________________
_______________________
Indexes variables
q: 0-->53
n: 54-->1253
d: 1254-->1653
Total number of Variables: 1654
_______________________
[NL] Optimizing now, allowing time = 60ms
[0m[ INFO] [1688980892.413228374]: [NL] Feasible, code=Maxtime_reached[0m
[NL] Feasible Solution found 64 ms 
q[N_]=  9.89 -9.89     0
obj_guess= 46.27698(45.55948 + 0.7174965)
obj_obtained= 46.27698(45.55948 + 0.7174965)
N_effective= 22
t_min= 0
t_max= 8.838835
num control points=1099.358
Time for planner algorithm (RMADER - snlopt.optimize(...)): 139.7753ms
Time_needed (line 241, test_nlopt):64ms
N_effective= 22
t_min= 0
t_max= 8.838835
num control points=1099.358
... logging to /home/cminghan/.ros/log/085b948e-1a38-11ee-bc96-00155df263c5/roslaunch-P-D21000977-27042.log
Checking log directory for disk usage. This may take a while.
Press Ctrl-C to interrupt
Done checking log file disk usage. Usage is <1GB.
]2;/home/cminghan/gcopter_ws/src/GCOPTER/gcopter/launch/nlopt_refresh.launch
[1mstarted roslaunch server http://P-D21000977:42593/[0m

SUMMARY
========

PARAMETERS
 * /rosdistro: noetic
 * /rosversion: 1.16.0
 * /test_nlopt/basis: MINVO

NODES
  /
    test_nlopt (gcopter/test_nlopt)

[1mROS_MASTER_URI=http://localhost:11311[0m
]2;/home/cminghan/gcopter_ws/src/GCOPTER/gcopter/launch/nlopt_refresh.launch http://localhost:11311
[1mprocess[test_nlopt-1]: started with pid [27056][0m
[test_nlopt-1] killing on exit
shutting down processing monitor...
... shutting down processing monitor complete
[1mdone[0m
killing:
 * /mockamap_node
 * /rosout
 * /rostopic_18396_1688717394306
killed
Finishing at : Mon Jul 10 17:21:33 +08 2023
[0m[ INFO] [1688980815.338537939]: finish: infill 0.001542%[0m
... logging to /home/cminghan/.ros/log/085b948e-1a38-11ee-bc96-00155df263c5/roslaunch-P-D21000977-25462.log
Checking log directory for disk usage. This may take a while.
Press Ctrl-C to interrupt
Done checking log file disk usage. Usage is <1GB.
]2;/home/cminghan/gcopter_ws/src/GCOPTER/gcopter/launch/test_nlopt.launch
[1mstarted roslaunch server http://P-D21000977:35607/[0m

SUMMARY
========

PARAMETERS
 * /mockamap_node/obstacle_number: 20
 * /mockamap_node/resolution: 0.1
 * /mockamap_node/seed: 0
 * /mockamap_node/type: 2
 * /mockamap_node/width_max: 1.0
 * /mockamap_node/width_min: 1.0
 * /mockamap_node/x_length: 50
 * /mockamap_node/y_length: 50
 * /mockamap_node/z_length: 10
 * /rosdistro: noetic
 * /rosversion: 1.16.0
 * /test_nlopt/basis: MINVO

NODES
  /
    mockamap_node (mockamap/mockamap_node)
    test_nlopt (gcopter/test_nlopt)

[1mROS_MASTER_URI=http://localhost:11311[0m
]2;/home/cminghan/gcopter_ws/src/GCOPTER/gcopter/launch/test_nlopt.launch http://localhost:11311
[1mprocess[test_nlopt-1]: started with pid [25477][0m
[1mprocess[mockamap_node-2]: started with pid [25478][0m
[1m[test_nlopt-1] process has finished cleanly
log file: /home/cminghan/.ros/log/085b948e-1a38-11ee-bc96-00155df263c5/test_nlopt-1*.log[0m
[1m[mockamap_node-2] process has finished cleanly
log file: /home/cminghan/.ros/log/085b948e-1a38-11ee-bc96-00155df263c5/mockamap_node-2*.log[0m
all processes on machine have died, roslaunch will exit
shutting down processing monitor...
... shutting down processing monitor complete
[1mdone[0m
